protein dna data file produced on: Sun Nov 22 19:03:09 2020

11688 atoms
11592 bonds
11496 angles
8160 dihedrals

20 atom types
1 bond types
1 angle types
1 dihedral types

-1000.000000 1000.000000 xlo xhi
-1000.000000 1000.000000 ylo yhi
-1000.000000 1000.000000 zlo zhi

Masses

   1   71.0788
   2  156.1875
   3  114.1038
   4  115.0886
   5  103.1388
   6  129.1155
   7  128.1307
   8   57.0519
   9  137.1411
  10  113.1594
  11  113.1594
  12  128.1741
  13  131.1926
  14  147.1766
  15   97.1167
  16   87.0782
  17  101.1051
  18  186.2132
  19  163.1760
  20   99.1326

Atoms

      1       1       1       1    0.0000 -2.661000000e+01 -3.410000000e+00 -1.124000000e+01
      2       1       2       2    1.0000 -2.735000000e+01 1.300000000e-01 -1.241000000e+01
      3       1       3      17    0.0000 -2.549000000e+01 2.410000000e+00 -1.484000000e+01
      4       1       4      12    1.0000 -2.491000000e+01 5.300000000e+00 -1.246000000e+01
      5       1       5       7    0.0000 -2.176000000e+01 5.520000000e+00 -1.033000000e+01
      6       1       6      17    0.0000 -1.976000000e+01 6.300000000e+00 -1.345000000e+01
      7       1       7       1    0.0000 -2.211000000e+01 7.670000000e+00 -1.611000000e+01
      8       1       8       2    1.0000 -1.865000000e+01 8.890000000e+00 -1.701000000e+01
      9       1       9      12    1.0000 -1.963000000e+01 9.540000000e+00 -2.062000000e+01
     10       1      10      16    0.0000 -1.791000000e+01 7.320000000e+00 -2.319000000e+01
     11       1      11      17    0.0000 -1.476000000e+01 9.230000000e+00 -2.409000000e+01
     12       1      12       8    0.0000 -1.329000000e+01 1.269000000e+01 -2.354000000e+01
     13       1      13       8    0.0000 -1.044000000e+01 1.366000000e+01 -2.126000000e+01
     14       1      14      12    1.0000 -1.177000000e+01 1.720000000e+01 -2.101000000e+01
     15       1      15       1    0.0000 -1.222000000e+01 1.835000000e+01 -1.741000000e+01
     16       1      16      15    0.0000 -1.450000000e+01 2.141000000e+01 -1.786000000e+01
     17       1      17       2    1.0000 -1.711000000e+01 1.888000000e+01 -1.901000000e+01
     18       1      18      12    1.0000 -2.052000000e+01 1.920000000e+01 -2.066000000e+01
     19       1      19       7    0.0000 -2.122000000e+01 2.286000000e+01 -1.982000000e+01
     20       1      20      11    0.0000 -1.918000000e+01 2.595000000e+01 -2.068000000e+01
     21       1      21       1    0.0000 -1.551000000e+01 2.642000000e+01 -1.978000000e+01
     22       1      22      17    0.0000 -1.274000000e+01 2.478000000e+01 -2.182000000e+01
     23       1      23      12    1.0000 -9.420000000e+00 2.492000000e+01 -1.997000000e+01
     24       1      24       1    0.0000 -6.360000000e+00 2.269000000e+01 -2.033000000e+01
     25       1      25       1    0.0000 -7.240000000e+00 2.075000000e+01 -1.717000000e+01
     26       1      26       2    1.0000 -6.940000000e+00 1.697000000e+01 -1.702000000e+01
     27       1      27      12    1.0000 -5.620000000e+00 1.549000000e+01 -1.376000000e+01
     28       1      28      16    0.0000 -2.830000000e+00 1.766000000e+01 -1.237000000e+01
     29       1      29       1    0.0000 -2.970000000e+00 2.130000000e+01 -1.128000000e+01
     30       1      30      15    0.0000 -5.310000000e+00 2.357000000e+01 -1.329000000e+01
     31       1      31       1    0.0000 -4.490000000e+00 2.621000000e+01 -1.068000000e+01
     32       1      32      17    0.0000 -1.110000000e+00 2.784000000e+01 -1.004000000e+01
     33       1      33       8    0.0000 1.010000000e+00 2.669000000e+01 -7.110000000e+00
     34       1      34       8    0.0000 1.630000000e+00 2.312000000e+01 -5.980000000e+00
     35       1      35      20    0.0000 1.480000000e+00 1.960000000e+01 -7.400000000e+00
     36       1      36      12    1.0000 1.200000000e+00 1.676000000e+01 -4.810000000e+00
     37       1      37      12    1.0000 4.560000000e+00 1.496000000e+01 -4.840000000e+00
     38       1      38      15    0.0000 5.760000000e+00 1.505000000e+01 -8.480000000e+00
     39       1      39       9    0.0000 7.900000000e+00 1.218000000e+01 -9.720000000e+00
     40       1      40       2    1.0000 1.160000000e+01 1.206000000e+01 -8.830000000e+00
     41       1      41      19    0.0000 1.422000000e+01 9.390000000e+00 -9.440000000e+00
     42       1      42       2    1.0000 1.664000000e+01 8.930000000e+00 -6.540000000e+00
     43       1      43      15    0.0000 2.015000000e+01 1.046000000e+01 -6.680000000e+00
     44       1      44       8    0.0000 2.225000000e+01 7.950000000e+00 -8.590000000e+00
     45       1      45      17    0.0000 1.947000000e+01 6.340000000e+00 -1.060000000e+01
     46       1      46      20    0.0000 1.984000000e+01 8.730000000e+00 -1.352000000e+01
     47       1      47       1    0.0000 2.365000000e+01 8.770000000e+00 -1.325000000e+01
     48       1      48      11    0.0000 2.352000000e+01 4.960000000e+00 -1.369000000e+01
     49       1      49       2    1.0000 2.114000000e+01 5.320000000e+00 -1.663000000e+01
     50       1      50       6   -1.0000 2.362000000e+01 7.750000000e+00 -1.828000000e+01
     51       1      51      10    0.0000 2.658000000e+01 5.420000000e+00 -1.772000000e+01
     52       1      52       2    1.0000 2.463000000e+01 2.670000000e+00 -1.951000000e+01
     53       1      53       2    1.0000 2.355000000e+01 5.010000000e+00 -2.233000000e+01
     54       1      54      19    0.0000 2.706000000e+01 6.310000000e+00 -2.301000000e+01
     55       1      55       7    0.0000 2.884000000e+01 2.990000000e+00 -2.268000000e+01
     56       1      56      12    1.0000 2.657000000e+01 1.650000000e+00 -2.537000000e+01
     57       1      57      16    0.0000 2.721000000e+01 4.440000000e+00 -2.788000000e+01
     58       1      58      17    0.0000 3.035000000e+01 5.630000000e+00 -2.966000000e+01
     59       1      59       6   -1.0000 2.951000000e+01 9.210000000e+00 -3.062000000e+01
     60       1      60      11    0.0000 3.194000000e+01 1.195000000e+01 -2.963000000e+01
     61       1      61      11    0.0000 3.084000000e+01 1.362000000e+01 -2.638000000e+01
     62       1      62      10    0.0000 3.248000000e+01 1.705000000e+01 -2.655000000e+01
     63       1      63       2    1.0000 3.084000000e+01 1.957000000e+01 -2.895000000e+01
     64       1      64      12    1.0000 3.263000000e+01 1.987000000e+01 -3.230000000e+01
     65       1      65      11    0.0000 3.299000000e+01 2.365000000e+01 -3.267000000e+01
     66       1      66      15    0.0000 3.416000000e+01 2.436000000e+01 -2.913000000e+01
     67       1      67      14    0.0000 3.672000000e+01 2.157000000e+01 -2.954000000e+01
     68       1      68       7    0.0000 3.790000000e+01 2.284000000e+01 -3.290000000e+01
     69       1      69       2    1.0000 3.842000000e+01 2.629000000e+01 -3.134000000e+01
     70       1      70      11    0.0000 4.050000000e+01 2.488000000e+01 -2.852000000e+01
     71       1      71      20    0.0000 4.271000000e+01 2.296000000e+01 -3.094000000e+01
     72       1      72       2    1.0000 4.332000000e+01 2.599000000e+01 -3.320000000e+01
     73       1      73       6   -1.0000 4.412000000e+01 2.815000000e+01 -3.018000000e+01
     74       1      74      10    0.0000 4.666000000e+01 2.567000000e+01 -2.882000000e+01
     75       1      75       1    0.0000 4.830000000e+01 2.520000000e+01 -3.223000000e+01
     76       1      76       7    0.0000 4.858000000e+01 2.899000000e+01 -3.277000000e+01
     77       1      77       4   -1.0000 5.101000000e+01 2.896000000e+01 -2.982000000e+01
     78       1      78      14    0.0000 5.342000000e+01 2.675000000e+01 -3.177000000e+01
     79       1      79      12    1.0000 5.295000000e+01 2.809000000e+01 -3.530000000e+01
     80       1      80      17    0.0000 5.071000000e+01 3.093000000e+01 -3.646000000e+01
     81       1      81       4   -1.0000 4.845000000e+01 3.089000000e+01 -3.948000000e+01
     82       1      82      11    0.0000 4.796000000e+01 2.716000000e+01 -3.966000000e+01
     83       1      83       2    1.0000 4.509000000e+01 2.547000000e+01 -4.141000000e+01
     84       1      84      14    0.0000 4.377000000e+01 2.201000000e+01 -4.038000000e+01
     85       1      85       7    0.0000 4.238000000e+01 1.921000000e+01 -4.247000000e+01
     86       1      86      16    0.0000 3.891000000e+01 1.841000000e+01 -4.105000000e+01
     87       1      87      16    0.0000 4.007000000e+01 1.484000000e+01 -4.032000000e+01
     88       1      88       1    0.0000 4.309000000e+01 1.622000000e+01 -3.834000000e+01
     89       1      89      20    0.0000 4.072000000e+01 1.787000000e+01 -3.593000000e+01
     90       1      90      13    0.0000 3.854000000e+01 1.475000000e+01 -3.579000000e+01
     91       1      91       1    0.0000 4.160000000e+01 1.254000000e+01 -3.513000000e+01
     92       1      92      11    0.0000 4.255000000e+01 1.483000000e+01 -3.224000000e+01
     93       1      93       7    0.0000 3.903000000e+01 1.468000000e+01 -3.083000000e+01
     94       1      94       6   -1.0000 3.880000000e+01 1.088000000e+01 -3.112000000e+01
     95       1      95       1    0.0000 4.219000000e+01 1.058000000e+01 -2.938000000e+01
     96       1      96      16    0.0000 4.139000000e+01 1.318000000e+01 -2.670000000e+01
     97       1      97       6   -1.0000 3.806000000e+01 1.166000000e+01 -2.581000000e+01
     98       1      98       1    0.0000 3.944000000e+01 8.110000000e+00 -2.569000000e+01
     99       1      99      19    0.0000 4.223000000e+01 9.410000000e+00 -2.344000000e+01
    100       1     100      11    0.0000 3.982000000e+01 1.116000000e+01 -2.107000000e+01
    101       1     101      20    0.0000 3.738000000e+01 8.300000000e+00 -2.088000000e+01
    102       1     102       1    0.0000 4.017000000e+01 5.810000000e+00 -2.003000000e+01
    103       1     103      11    0.0000 4.155000000e+01 8.280000000e+00 -1.747000000e+01
    104       1     104      14    0.0000 3.811000000e+01 8.530000000e+00 -1.585000000e+01
    105       1     105       6   -1.0000 3.800000000e+01 4.730000000e+00 -1.558000000e+01
    106       1     106       4   -1.0000 4.135000000e+01 4.830000000e+00 -1.367000000e+01
    107       1     107      17    0.0000 4.024000000e+01 7.850000000e+00 -1.162000000e+01
    108       1     108       3    0.0000 3.709000000e+01 5.870000000e+00 -1.068000000e+01
    109       1     109      11    0.0000 3.917000000e+01 2.910000000e+00 -9.480000000e+00
    110       1     110       5    0.0000 4.117000000e+01 5.370000000e+00 -7.290000000e+00
    111       1     111       1    0.0000 3.798000000e+01 6.810000000e+00 -5.750000000e+00
    112       1     112      10    0.0000 3.663000000e+01 3.360000000e+00 -5.010000000e+00
    113       1     113       9    0.0000 4.001000000e+01 2.390000000e+00 -3.560000000e+00
    114       1     114       1    0.0000 3.950000000e+01 5.170000000e+00 -1.020000000e+00
    115       1     115      12    1.0000 3.600000000e+01 3.840000000e+00 -2.400000000e-01
    116       1     116       2    1.0000 3.429000000e+01 6.680000000e+00 -2.110000000e+00
    117       1     117      20    0.0000 3.195000000e+01 6.700000000e+00 -5.090000000e+00
    118       1     118      17    0.0000 3.264000000e+01 1.033000000e+01 -5.920000000e+00
    119       1     119      10    0.0000 3.568000000e+01 1.109000000e+01 -8.070000000e+00
    120       1     120      13    0.0000 3.786000000e+01 1.394000000e+01 -6.880000000e+00
    121       1     121      15    0.0000 4.091000000e+01 1.581000000e+01 -8.260000000e+00
    122       1     122      12    1.0000 4.320000000e+01 1.375000000e+01 -5.990000000e+00
    123       1     123       4   -1.0000 4.192000000e+01 1.063000000e+01 -7.790000000e+00
    124       1     124      10    0.0000 4.278000000e+01 1.206000000e+01 -1.120000000e+01
    125       1     125       7    0.0000 4.617000000e+01 1.313000000e+01 -9.810000000e+00
    126       1     126      11    0.0000 4.692000000e+01 9.720000000e+00 -8.340000000e+00
    127       1     127       1    0.0000 4.602000000e+01 7.990000000e+00 -1.160000000e+01
    128       1     128       2    1.0000 4.821000000e+01 1.031000000e+01 -1.366000000e+01
    129       1     129       2    1.0000 5.114000000e+01 9.940000000e+00 -1.126000000e+01
    130       1     130      10    0.0000 5.098000000e+01 6.120000000e+00 -1.142000000e+01
    131       1     131       2    1.0000 5.062000000e+01 6.210000000e+00 -1.519000000e+01
    132       1     132       8    0.0000 5.383000000e+01 8.220000000e+00 -1.534000000e+01
    133       1     133       6   -1.0000 5.209000000e+01 1.129000000e+01 -1.675000000e+01
    134       1     134       2    1.0000 5.275000000e+01 1.340000000e+01 -1.366000000e+01
    135       1     135       1    0.0000 5.558000000e+01 1.122000000e+01 -1.244000000e+01
    136       2     136      16    0.0000 1.653000000e+01 4.695000000e+01 -1.633000000e+01
    137       2     137       8    0.0000 1.807000000e+01 4.465000000e+01 -1.374000000e+01
    138       2     138       2    1.0000 1.508000000e+01 4.237000000e+01 -1.318000000e+01
    139       2     139       8    0.0000 1.496000000e+01 3.886000000e+01 -1.176000000e+01
    140       2     140      12    1.0000 1.769000000e+01 3.681000000e+01 -1.012000000e+01
    141       2     141       8    0.0000 1.705000000e+01 3.362000000e+01 -1.204000000e+01
    142       2     142       8    0.0000 1.373000000e+01 3.274000000e+01 -1.363000000e+01
    143       2     143      12    1.0000 1.136000000e+01 3.394000000e+01 -1.635000000e+01
    144       2     144       8    0.0000 1.148000000e+01 3.760000000e+01 -1.734000000e+01
    145       2     145      11    0.0000 1.429000000e+01 3.895000000e+01 -1.950000000e+01
    146       2     146       8    0.0000 1.788000000e+01 4.003000000e+01 -1.890000000e+01
    147       2     147      12    1.0000 1.796000000e+01 3.784000000e+01 -1.580000000e+01
    148       2     148       8    0.0000 2.093000000e+01 3.558000000e+01 -1.505000000e+01
    149       2     149       8    0.0000 2.226000000e+01 3.359000000e+01 -1.798000000e+01
    150       2     150       1    0.0000 2.212000000e+01 3.614000000e+01 -2.079000000e+01
    151       2     151      12    1.0000 2.540000000e+01 3.646000000e+01 -2.268000000e+01
    152       2     152       2    1.0000 2.566000000e+01 3.714000000e+01 -2.641000000e+01
    153       2     153       9    0.0000 2.895000000e+01 3.675000000e+01 -2.828000000e+01
    154       2     154       2    1.0000 3.084000000e+01 3.384000000e+01 -2.975000000e+01
    155       2     155      12    1.0000 3.452000000e+01 3.357000000e+01 -2.892000000e+01
    156       2     156      20    0.0000 3.720000000e+01 3.566000000e+01 -3.057000000e+01
    157       2     157      11    0.0000 3.887000000e+01 3.536000000e+01 -2.716000000e+01
    158       2     158       2    1.0000 3.651000000e+01 3.396000000e+01 -2.450000000e+01
    159       2     159       4   -1.0000 3.565000000e+01 3.043000000e+01 -2.332000000e+01
    160       2     160       3    0.0000 3.769000000e+01 2.810000000e+01 -2.552000000e+01
    161       2     161      10    0.0000 3.913000000e+01 2.573000000e+01 -2.288000000e+01
    162       2     162       7    0.0000 3.615000000e+01 2.697000000e+01 -2.089000000e+01
    163       2     163       8    0.0000 3.413000000e+01 2.586000000e+01 -2.387000000e+01
    164       2     164      10    0.0000 3.467000000e+01 2.222000000e+01 -2.291000000e+01
    165       2     165      17    0.0000 3.156000000e+01 2.223000000e+01 -2.077000000e+01
    166       2     166      12    1.0000 3.070000000e+01 2.067000000e+01 -1.745000000e+01
    167       2     167      15    0.0000 2.806000000e+01 1.858000000e+01 -1.929000000e+01
    168       2     168       1    0.0000 3.050000000e+01 1.726000000e+01 -2.188000000e+01
    169       2     169      10    0.0000 3.296000000e+01 1.631000000e+01 -1.909000000e+01
    170       2     170       2    1.0000 3.016000000e+01 1.459000000e+01 -1.717000000e+01
    171       2     171       2    1.0000 2.932000000e+01 1.262000000e+01 -2.032000000e+01
    172       2     172      11    0.0000 3.296000000e+01 1.157000000e+01 -2.077000000e+01
    173       2     173       1    0.0000 3.301000000e+01 1.047000000e+01 -1.713000000e+01
    174       2     174       2    1.0000 2.979000000e+01 8.460000000e+00 -1.761000000e+01
    175       2     175       2    1.0000 3.128000000e+01 6.600000000e+00 -2.055000000e+01
    176       2     176       8    0.0000 3.422000000e+01 6.030000000e+00 -1.816000000e+01
    177       2     177       8    0.0000 3.180000000e+01 4.430000000e+00 -1.563000000e+01
    178       2     178      20    0.0000 3.174000000e+01 7.310000000e+00 -1.314000000e+01
    179       2     179      12    1.0000 2.857000000e+01 7.710000000e+00 -1.102000000e+01
    180       2     180       2    1.0000 2.931000000e+01 1.076000000e+01 -8.860000000e+00
    181       2     181      10    0.0000 3.150000000e+01 1.376000000e+01 -9.580000000e+00
    182       2     182      16    0.0000 3.315000000e+01 1.636000000e+01 -7.350000000e+00
    183       2     183       8    0.0000 3.255000000e+01 1.998000000e+01 -8.260000000e+00
    184       2     184      11    0.0000 3.629000000e+01 2.048000000e+01 -8.660000000e+00
    185       2     185      10    0.0000 3.665000000e+01 1.775000000e+01 -1.131000000e+01
    186       2     186      19    0.0000 3.564000000e+01 2.002000000e+01 -1.416000000e+01
    187       2     187       6   -1.0000 3.850000000e+01 2.245000000e+01 -1.389000000e+01
    188       2     188       6   -1.0000 4.088000000e+01 1.961000000e+01 -1.319000000e+01
    189       2     189      17    0.0000 3.975000000e+01 1.785000000e+01 -1.636000000e+01
    190       2     190       2    1.0000 4.020000000e+01 2.099000000e+01 -1.847000000e+01
    191       2     191       8    0.0000 4.376000000e+01 2.131000000e+01 -1.720000000e+01
    192       2     192      20    0.0000 4.453000000e+01 1.770000000e+01 -1.806000000e+01
    193       2     193      11    0.0000 4.290000000e+01 1.795000000e+01 -2.147000000e+01
    194       2     194      12    1.0000 4.487000000e+01 2.110000000e+01 -2.227000000e+01
    195       2     195      20    0.0000 4.816000000e+01 1.932000000e+01 -2.141000000e+01
    196       2     196      14    0.0000 4.723000000e+01 1.634000000e+01 -2.357000000e+01
    197       2     197      11    0.0000 4.643000000e+01 1.857000000e+01 -2.656000000e+01
    198       2     198       6   -1.0000 4.949000000e+01 2.076000000e+01 -2.608000000e+01
    199       2     199       3    0.0000 5.161000000e+01 1.760000000e+01 -2.618000000e+01
    200       2     200      20    0.0000 5.001000000e+01 1.602000000e+01 -2.917000000e+01
    201       2     201      10    0.0000 4.959000000e+01 1.927000000e+01 -3.115000000e+01
    202       2     202       2    1.0000 5.317000000e+01 2.033000000e+01 -3.048000000e+01
    203       2     203       4   -1.0000 5.446000000e+01 1.718000000e+01 -3.219000000e+01
    204       2     204       1    0.0000 5.191000000e+01 1.729000000e+01 -3.500000000e+01
    205       2     205      20    0.0000 5.292000000e+01 2.087000000e+01 -3.580000000e+01
    206       2     206      17    0.0000 5.658000000e+01 1.977000000e+01 -3.571000000e+01
    207       2     207      19    0.0000 5.577000000e+01 1.725000000e+01 -3.844000000e+01
    208       2     208      17    0.0000 5.378000000e+01 1.994000000e+01 -4.034000000e+01
    209       2     209       6   -1.0000 5.671000000e+01 2.235000000e+01 -4.032000000e+01
    210       2     210       9    0.0000 5.923000000e+01 1.968000000e+01 -4.126000000e+01
    211       2     211       1    0.0000 5.710000000e+01 1.900000000e+01 -4.432000000e+01
    212       2     212      12    1.0000 5.715000000e+01 2.270000000e+01 -4.514000000e+01
    213       2     213       2    1.0000 5.332000000e+01 2.268000000e+01 -4.497000000e+01
    214       2     214      12    1.0000 5.093000000e+01 2.527000000e+01 -4.363000000e+01
    215       2     215      17    0.0000 4.816000000e+01 2.272000000e+01 -4.310000000e+01
    216       2     216      20    0.0000 4.808000000e+01 2.021000000e+01 -4.019000000e+01
    217       2     217      17    0.0000 4.707000000e+01 1.687000000e+01 -4.168000000e+01
    218       2     218       1    0.0000 4.542000000e+01 1.387000000e+01 -4.011000000e+01
    219       2     219      13    0.0000 4.870000000e+01 1.198000000e+01 -4.071000000e+01
    220       2     220       4   -1.0000 5.066000000e+01 1.463000000e+01 -3.876000000e+01
    221       2     221      20    0.0000 4.825000000e+01 1.393000000e+01 -3.588000000e+01
    222       2     222      20    0.0000 4.845000000e+01 1.012000000e+01 -3.635000000e+01
    223       2     223      19    0.0000 5.227000000e+01 1.024000000e+01 -3.627000000e+01
    224       2     224       1    0.0000 5.229000000e+01 1.253000000e+01 -3.324000000e+01
    225       2     225      11    0.0000 4.987000000e+01 1.021000000e+01 -3.141000000e+01
    226       2     226      12    1.0000 5.191000000e+01 7.130000000e+00 -3.225000000e+01
    227       2     227       2    1.0000 5.518000000e+01 8.530000000e+00 -3.092000000e+01
    228       2     228       7    0.0000 5.337000000e+01 9.530000000e+00 -2.769000000e+01
    229       2     229       8    0.0000 5.229000000e+01 5.880000000e+00 -2.727000000e+01
    230       2     230       2    1.0000 4.869000000e+01 6.550000000e+00 -2.827000000e+01
    231       2     231      17    0.0000 4.838000000e+01 4.870000000e+00 -3.168000000e+01
    232       2     232      11    0.0000 4.505000000e+01 5.770000000e+00 -3.328000000e+01
    233       2     233      19    0.0000 4.343000000e+01 3.640000000e+00 -3.599000000e+01
    234       2     234       8    0.0000 4.099000000e+01 5.010000000e+00 -3.853000000e+01
    235       2     235      14    0.0000 4.276000000e+01 8.040000000e+00 -3.994000000e+01
    236       2     236       8    0.0000 4.549000000e+01 6.780000000e+00 -4.225000000e+01
    237       2     237       8    0.0000 4.373000000e+01 7.290000000e+00 -4.557000000e+01
    238       3     238      16    0.0000 8.990000000e+01 1.909000000e+01 -6.339000000e+01
    239       3     239       8    0.0000 9.067000000e+01 1.594000000e+01 -6.535000000e+01
    240       3     240       2    1.0000 9.234000000e+01 1.334000000e+01 -6.314000000e+01
    241       3     241       8    0.0000 9.597000000e+01 1.382000000e+01 -6.415000000e+01
    242       3     242      12    1.0000 9.790000000e+01 1.452000000e+01 -6.096000000e+01
    243       3     243       7    0.0000 9.763000000e+01 1.671000000e+01 -5.786000000e+01
    244       3     244       8    0.0000 9.997000000e+01 1.820000000e+01 -5.527000000e+01
    245       3     245       8    0.0000 9.986000000e+01 1.998000000e+01 -5.193000000e+01
    246       3     246      12    1.0000 9.769000000e+01 1.955000000e+01 -4.885000000e+01
    247       3     247      17    0.0000 9.572000000e+01 2.241000000e+01 -4.734000000e+01
    248       3     248       2    1.0000 9.223000000e+01 2.095000000e+01 -4.708000000e+01
    249       3     249       1    0.0000 9.335000000e+01 1.864000000e+01 -4.429000000e+01
    250       3     250      12    1.0000 9.474000000e+01 1.512000000e+01 -4.474000000e+01
    251       3     251       1    0.0000 9.526000000e+01 1.521000000e+01 -4.099000000e+01
    252       3     252      12    1.0000 9.206000000e+01 1.715000000e+01 -4.033000000e+01
    253       3     253      17    0.0000 8.916000000e+01 1.509000000e+01 -3.902000000e+01
    254       3     254       2    1.0000 8.559000000e+01 1.608000000e+01 -3.974000000e+01
    255       3     255      16    0.0000 8.530000000e+01 1.640000000e+01 -3.596000000e+01
    256       3     256      16    0.0000 8.804000000e+01 1.908000000e+01 -3.584000000e+01
    257       3     257       2    1.0000 8.643000000e+01 2.067000000e+01 -3.888000000e+01
    258       3     258       1    0.0000 8.307000000e+01 2.086000000e+01 -3.705000000e+01
    259       3     259       8    0.0000 8.469000000e+01 2.197000000e+01 -3.376000000e+01
    260       3     260      11    0.0000 8.370000000e+01 1.875000000e+01 -3.199000000e+01
    261       3     261       7    0.0000 8.512000000e+01 1.626000000e+01 -2.953000000e+01
    262       3     262      14    0.0000 8.273000000e+01 1.343000000e+01 -3.049000000e+01
    263       3     263      15    0.0000 8.366000000e+01 1.147000000e+01 -3.368000000e+01
    264       3     264      20    0.0000 8.188000000e+01 1.263000000e+01 -3.682000000e+01
    265       3     265       8    0.0000 8.336000000e+01 9.820000000e+00 -3.889000000e+01
    266       3     266       2    1.0000 8.211000000e+01 7.110000000e+00 -3.652000000e+01
    267       3     267      20    0.0000 7.867000000e+01 8.660000000e+00 -3.620000000e+01
    268       3     268       9    0.0000 7.844000000e+01 8.770000000e+00 -4.003000000e+01
    269       3     269       2    1.0000 7.938000000e+01 5.090000000e+00 -4.027000000e+01
    270       3     270      11    0.0000 7.696000000e+01 4.040000000e+00 -3.755000000e+01
    271       3     271      11    0.0000 7.412000000e+01 5.980000000e+00 -3.927000000e+01
    272       3     272       2    1.0000 7.489000000e+01 4.100000000e+00 -4.250000000e+01
    273       3     273      12    1.0000 7.524000000e+01 7.300000000e-01 -4.074000000e+01
    274       3     274       8    0.0000 7.188000000e+01 1.030000000e+00 -3.897000000e+01
    275       3     275       3    0.0000 6.960000000e+01 1.080000000e+00 -4.201000000e+01
    276       3     276      19    0.0000 6.790000000e+01 4.330000000e+00 -4.117000000e+01
    277       3     277       1    0.0000 6.768000000e+01 5.570000000e+00 -4.478000000e+01
    278       3     278       6   -1.0000 6.915000000e+01 4.800000000e+00 -4.817000000e+01
    279       3     279       2    1.0000 7.129000000e+01 7.950000000e+00 -4.794000000e+01
    280       3     280      20    0.0000 7.291000000e+01 1.000000000e+01 -4.515000000e+01
    281       3     281       8    0.0000 7.391000000e+01 1.357000000e+01 -4.591000000e+01
    282       3     282       1    0.0000 7.730000000e+01 1.494000000e+01 -4.481000000e+01
    283       3     283       8    0.0000 7.578000000e+01 1.729000000e+01 -4.225000000e+01
    284       3     284       1    0.0000 7.368000000e+01 1.465000000e+01 -4.046000000e+01
    285       3     285      15    0.0000 7.651000000e+01 1.297000000e+01 -3.855000000e+01
    286       3     286      20    0.0000 7.795000000e+01 1.637000000e+01 -3.769000000e+01
    287       3     287      19    0.0000 7.469000000e+01 1.758000000e+01 -3.622000000e+01
    288       3     288      11    0.0000 7.411000000e+01 1.428000000e+01 -3.443000000e+01
    289       3     289       1    0.0000 7.766000000e+01 1.412000000e+01 -3.296000000e+01
    290       3     290       1    0.0000 7.727000000e+01 1.774000000e+01 -3.171000000e+01
    291       3     291      20    0.0000 7.396000000e+01 1.681000000e+01 -2.999000000e+01
    292       3     292      11    0.0000 7.540000000e+01 1.366000000e+01 -2.836000000e+01
    293       3     293       6   -1.0000 7.841000000e+01 1.565000000e+01 -2.720000000e+01
    294       3     294      19    0.0000 7.614000000e+01 1.834000000e+01 -2.578000000e+01
    295       3     295      11    0.0000 7.397000000e+01 1.587000000e+01 -2.382000000e+01
    296       3     296      17    0.0000 7.707000000e+01 1.411000000e+01 -2.255000000e+01
    297       3     297       1    0.0000 7.844000000e+01 1.743000000e+01 -2.127000000e+01
    298       3     298       6   -1.0000 7.514000000e+01 1.820000000e+01 -1.952000000e+01
    299       3     299      10    0.0000 7.494000000e+01 1.491000000e+01 -1.767000000e+01
    300       3     300      11    0.0000 7.863000000e+01 1.498000000e+01 -1.675000000e+01
    301       3     301       6   -1.0000 7.838000000e+01 1.856000000e+01 -1.548000000e+01
    302       3     302      11    0.0000 7.550000000e+01 1.766000000e+01 -1.313000000e+01
    303       3     303       1    0.0000 7.704000000e+01 1.428000000e+01 -1.219000000e+01
    304       3     304       8    0.0000 8.040000000e+01 1.579000000e+01 -1.127000000e+01
    305       3     305       3    0.0000 7.842000000e+01 1.823000000e+01 -9.120000000e+00
    306       3     306       1    0.0000 7.671000000e+01 1.529000000e+01 -7.350000000e+00
    307       3     307       1    0.0000 8.010000000e+01 1.362000000e+01 -6.770000000e+00
    308       3     308       2    1.0000 8.147000000e+01 1.689000000e+01 -5.330000000e+00
    309       3     309       4   -1.0000 7.835000000e+01 1.730000000e+01 -3.120000000e+00
    310       3     310       3    0.0000 7.906000000e+01 1.379000000e+01 -1.750000000e+00
    311       3     311      12    1.0000 8.275000000e+01 1.464000000e+01 -1.250000000e+00
    312       3     312      12    1.0000 8.394000000e+01 1.230000000e+01 -4.000000000e+00
    313       3     313      17    0.0000 8.622000000e+01 1.297000000e+01 -6.940000000e+00
    314       3     314       2    1.0000 8.524000000e+01 9.970000000e+00 -9.000000000e+00
    315       3     315      10    0.0000 8.183000000e+01 9.800000000e+00 -1.068000000e+01
    316       3     316      10    0.0000 8.005000000e+01 6.490000000e+00 -1.001000000e+01
    317       3     317      15    0.0000 7.655000000e+01 5.300000000e+00 -1.115000000e+01
    318       3     318       2    1.0000 7.497000000e+01 6.790000000e+00 -8.060000000e+00
    319       3     319       9    0.0000 7.610000000e+01 1.031000000e+01 -9.100000000e+00
    320       3     320      11    0.0000 7.471000000e+01 9.850000000e+00 -1.261000000e+01
    321       3     321       7    0.0000 7.135000000e+01 8.770000000e+00 -1.110000000e+01
    322       3     322      11    0.0000 7.131000000e+01 1.171000000e+01 -8.670000000e+00