LAMMPS Description for 3SPN.2

94 atoms
92 bonds
148 angles
116 dihedrals

18 atom types
1 bond types
17 angle types
1 dihedral types

-62.192000 62.192000 xlo xhi
-62.192000 62.192000 ylo yhi
-62.192000 62.192000 zlo zhi

Masses

   1   94.9696
   2   83.1104
   3  134.1220
   4  125.1078
   5  150.1214
   6  110.0964
   7  134.1220
   8  125.1078
   9  150.1214
  10  110.0964
  11  134.1220
  12  125.1078
  13  150.1214
  14  110.0964
  15   22.9898
  16   24.3050
  17   35.4530
  18   49.4000


Bond Coeffs

	1	list

Angle Coeffs

	1	list
	2	stacking/3spn2	3.303059	3.580000	100.130000	3.000000	6.000000
	3	stacking/3spn2	3.597036	3.560000	90.480000	3.000000	6.000000
	4	stacking/3spn2	3.183556	3.850000	104.390000	3.000000	6.000000
	5	stacking/3spn2	3.781071	3.450000	93.230000	3.000000	6.000000
	6	stacking/3spn2	2.186902	4.150000	102.590000	3.000000	6.000000
	7	stacking/3spn2	2.973231	3.930000	93.320000	3.000000	6.000000
	8	stacking/3spn2	2.289675	4.320000	103.700000	3.000000	6.000000
	9	stacking/3spn2	3.133365	3.870000	94.550000	3.000000	6.000000
	10	stacking/3spn2	3.288719	3.510000	95.450000	3.000000	6.000000
	11	stacking/3spn2	3.487094	3.470000	87.630000	3.000000	6.000000
	12	stacking/3spn2	3.530115	3.670000	106.360000	3.000000	6.000000
	13	stacking/3spn2	3.625717	3.420000	83.120000	3.000000	6.000000
	14	stacking/3spn2	2.210803	4.150000	102.690000	3.000000	6.000000
	15	stacking/3spn2	2.968451	3.990000	96.050000	3.000000	6.000000
	16	stacking/3spn2	2.110421	4.340000	100.460000	3.000000	6.000000
	17	stacking/3spn2	3.348470	3.840000	100.680000	3.000000	6.000000

Dihedral Coeffs

	1	list


Atoms

      1       1       2    0.0000 -1.706750e+01  2.016919e+01  2.518709e+00
      2       1       8    0.0000 -1.664081e+01  1.777347e+01  6.064865e+00
      3       1       1   -0.6000 -1.704368e+01  2.002222e+01 -1.049894e+00
      4       1       2    0.0000 -1.332427e+01  1.868155e+01 -8.273710e-01
      5       1       5    0.0000 -1.268316e+01  1.475522e+01  2.104634e+00
      6       1       1   -0.6000 -1.087001e+01  1.979333e+01 -3.446005e+00
      7       1       2    0.0000 -8.206518e+00  1.655251e+01 -2.550525e+00
      8       1       4    0.0000 -1.057897e+01  1.332333e+01 -1.411198e+00
      9       1       1   -0.6000 -4.619872e+00  1.697859e+01 -3.442363e+00
     10       1       2    0.0000 -3.953270e+00  1.361037e+01 -1.787866e+00
     11       1       5    0.0000 -7.947487e+00  1.132080e+01 -3.354797e+00
     12       1       1   -0.6000 -8.560640e-01  1.162752e+01 -1.094724e+00
     13       1       2    0.0000 -2.935343e+00  8.173894e+00 -1.077146e+00
     14       1       4    0.0000 -5.530427e+00  8.968005e+00 -4.458775e+00
     15       1       1   -0.6000 -9.469670e-01  5.170588e+00  1.913670e-01
     16       1       2    0.0000 -3.421943e+00  2.864090e+00 -2.080540e+00
     17       1       6    0.0000 -4.631222e+00  5.636893e+00 -5.153056e+00
     18       1       1   -0.6000 -2.004239e+00 -6.916550e-01 -2.405639e+00
     19       1       2    0.0000 -4.351330e+00 -1.243873e+00 -5.548413e+00
     20       1       3    0.0000 -3.554041e+00  2.939237e+00 -7.764482e+00
     21       1       1   -0.6000 -4.870056e+00 -4.609717e+00 -7.253123e+00
     22       1       2    0.0000 -6.038763e+00 -2.010813e+00 -1.049194e+01
     23       1       3    0.0000 -3.560312e+00  1.867349e+00 -1.105445e+01
     24       1       1   -0.6000 -7.938300e+00 -3.813115e+00 -1.316341e+01
     25       1       2    0.0000 -7.483000e+00 -3.948320e-01 -1.527897e+01
     26       1       5    0.0000 -3.355064e+00  2.249976e+00 -1.470637e+01
     27       1       1   -0.6000 -8.901374e+00  2.018440e-01 -1.872386e+01
     28       1       2    0.0000 -5.901445e+00  2.920434e+00 -1.951120e+01
     29       1       4    0.0000 -2.141721e+00  1.467003e+00 -1.787912e+01
     30       1       1   -0.6000 -6.496499e+00  4.707136e+00 -2.277343e+01
     31       1       2    0.0000 -2.611587e+00  5.133208e+00 -2.297563e+01
     32       1       5    0.0000 -1.572810e-01  1.583089e+00 -2.075101e+01
     33       1       1   -0.6000 -1.078743e+00  6.890052e+00 -2.592878e+01
     34       1       2    0.0000  2.512262e+00  5.471057e+00 -2.591532e+01
     35       1       5    0.0000  2.389874e+00  1.208471e+00 -2.354689e+01
     36       1       1   -0.6000  5.171460e+00  6.013607e+00 -2.852415e+01
     37       1       2    0.0000  8.058301e+00  3.359159e+00 -2.757530e+01
     38       1       6    0.0000  6.077337e+00 -4.222960e-01 -2.748127e+01
     39       1       1   -0.6000  1.143493e+01  3.850890e+00 -2.930840e+01
     40       1       2    0.0000  1.245961e+01 -3.422800e-02 -2.797876e+01
     41       1       4    0.0000  8.890157e+00 -2.250859e+00 -2.900303e+01
     42       1       1   -0.6000  1.595940e+01 -9.173590e-01 -2.899046e+01
     43       1       2    0.0000  1.525517e+01 -4.958436e+00 -2.783473e+01
     44       1       5    0.0000  1.103167e+01 -6.715739e+00 -2.968678e+01
     45       1       1   -0.6000  1.743958e+01 -7.328613e+00 -2.585997e+01
     46       1       2    0.0000  1.511502e+01 -1.057004e+01 -2.755315e+01
     47       1      12    0.0000  1.406376e+01 -9.494359e+00 -3.151771e+01
     48       2       2    0.0000  4.243825e+00 -1.139961e+01 -3.636132e+01
     49       2       7    0.0000  8.691960e+00 -9.988414e+00 -3.520708e+01
     50       2       1   -0.6000  3.085559e+00 -1.348668e+01 -3.400243e+01
     51       2       2    0.0000  5.256741e+00 -1.230620e+01 -3.065342e+01
     52       2       6    0.0000  6.406718e+00 -8.164247e+00 -3.048772e+01
     53       2       1   -0.6000  3.592816e+00 -1.418601e+01 -2.780297e+01
     54       2       2    0.0000  4.976170e+00 -1.127425e+01 -2.545487e+01
     55       2       3    0.0000  4.929142e+00 -6.961668e+00 -2.760780e+01
     56       2       1   -0.6000  4.237697e+00 -1.145624e+01 -2.177512e+01
     57       2       2    0.0000  5.234496e+00 -7.862365e+00 -2.085970e+01
     58       2       5    0.0000  3.966228e+00 -4.661458e+00 -2.433829e+01
     59       2       1   -0.6000  5.541697e+00 -6.688786e+00 -1.728868e+01
     60       2       2    0.0000  7.808029e+00 -3.694438e+00 -1.733384e+01
     61       2       6    0.0000  4.964095e+00 -2.711603e+00 -2.022654e+01
     62       2       1   -0.6000  1.040749e+01 -1.750655e+00 -1.692925e+01
     63       2       2    0.0000  8.709653e+00  1.668524e+00 -1.740315e+01
     64       2       6    0.0000  4.661990e+00  4.264390e-01 -1.772993e+01
     65       2       1   -0.6000  9.818359e+00  4.914043e+00 -1.584434e+01
     66       2       2    0.0000  6.541723e+00  6.630282e+00 -1.650288e+01
     67       2       3    0.0000  3.240864e+00  3.234159e+00 -1.564719e+01
     68       2       1   -0.6000  5.410005e+00  1.022698e+01 -1.591560e+01
     69       2       2    0.0000  1.543328e+00  9.943466e+00 -1.675017e+01
     70       2       6    0.0000  2.204760e-01  6.570488e+00 -1.446488e+01
     71       2       1   -0.6000 -6.368940e-01  1.304366e+01 -1.728509e+01
     72       2       2    0.0000 -3.765918e+00  1.051740e+01 -1.539919e+01
     73       2       4    0.0000 -2.571820e+00  7.578250e+00 -1.260770e+01
     74       2       1   -0.6000 -7.146153e+00  1.216342e+01 -1.536905e+01
     75       2       2    0.0000 -8.814102e+00  8.581196e+00 -1.445998e+01
     76       2       4    0.0000 -6.242516e+00  7.504133e+00 -1.113425e+01
     77       2       1   -0.6000 -1.203913e+01  6.858817e+00 -1.539832e+01
     78       2       2    0.0000 -1.204190e+01  5.022326e+00 -1.192343e+01
     79       2       5    0.0000 -8.587404e+00  6.629659e+00 -8.825737e+00
     80       2       1   -0.6000 -1.501101e+01  3.348996e+00 -1.032471e+01
     81       2       2    0.0000 -1.437340e+01  3.625510e+00 -6.117144e+00
     82       2       3    0.0000 -1.134859e+01  7.008620e+00 -6.632534e+00
     83       2       1   -0.6000 -1.546371e+01  2.187313e+00 -2.877754e+00
     84       2       2    0.0000 -1.240026e+01  3.668828e+00 -1.018925e+00
     85       2       6    0.0000 -1.187097e+01  7.400376e+00 -2.942241e+00
     86       2       1   -0.6000 -1.174564e+01  2.799160e+00  2.594192e+00
     87       2       2    0.0000 -8.692659e+00  4.599756e+00  3.962397e+00
     88       2       3    0.0000 -1.108646e+01  7.916909e+00  1.866985e+00
     89       2       1   -0.6000 -6.425542e+00  4.885300e+00  6.891374e+00
     90       2       2    0.0000 -6.337786e+00  9.031642e+00  6.255792e+00
     91       2       6    0.0000 -1.005260e+01  1.046175e+01  4.566685e+00
     92       2       1   -0.6000 -4.273360e+00  1.033508e+01  9.181227e+00
     93       2       2    0.0000 -6.556324e+00  1.369970e+01  9.031591e+00
     94       2      11    0.0000 -1.112804e+01  1.336536e+01  7.604547e+00

Bonds

      1       1       1       2
      2       1       1       3
      3       1       3       4
      4       1       4       5
      5       1       4       6
      6       1       6       7
      7       1       7       8
      8       1       7       9
      9       1       9      10
     10       1      10      11
     11       1      10      12
     12       1      12      13
     13       1      13      14
     14       1      13      15
     15       1      15      16
     16       1      16      17
     17       1      16      18
     18       1      18      19
     19       1      19      20
     20       1      19      21
     21       1      21      22
     22       1      22      23
     23       1      22      24
     24       1      24      25
     25       1      25      26
     26       1      25      27
     27       1      27      28
     28       1      28      29
     29       1      28      30
     30       1      30      31
     31       1      31      32
     32       1      31      33
     33       1      33      34
     34       1      34      35
     35       1      34      36
     36       1      36      37
     37       1      37      38
     38       1      37      39
     39       1      39      40
     40       1      40      41
     41       1      40      42
     42       1      42      43
     43       1      43      44
     44       1      43      45
     45       1      45      46
     46       1      46      47
     47       1      48      49
     48       1      48      50
     49       1      50      51
     50       1      51      52
     51       1      51      53
     52       1      53      54
     53       1      54      55
     54       1      54      56
     55       1      56      57
     56       1      57      58
     57       1      57      59
     58       1      59      60
     59       1      60      61
     60       1      60      62
     61       1      62      63
     62       1      63      64
     63       1      63      65
     64       1      65      66
     65       1      66      67
     66       1      66      68
     67       1      68      69
     68       1      69      70
     69       1      69      71
     70       1      71      72
     71       1      72      73
     72       1      72      74
     73       1      74      75
     74       1      75      76
     75       1      75      77
     76       1      77      78
     77       1      78      79
     78       1      78      80
     79       1      80      81
     80       1      81      82
     81       1      81      83
     82       1      83      84
     83       1      84      85
     84       1      84      86
     85       1      86      87
     86       1      87      88
     87       1      87      89
     88       1      89      90
     89       1      90      91
     90       1      90      92
     91       1      92      93
     92       1      93      94

Angles

      1       1       2       1       3
      2       1       1       3       4
      3       1       3       4       5
      4       1       3       4       6
      5       1       5       4       6
      6       1       4       6       7
      7       1       6       7       8
      8       1       6       7       9
      9       1       8       7       9
     10       1       7       9      10
     11       1       9      10      11
     12       1       9      10      12
     13       1      11      10      12
     14       1      10      12      13
     15       1      12      13      14
     16       1      12      13      15
     17       1      14      13      15
     18       1      13      15      16
     19       1      15      16      17
     20       1      15      16      18
     21       1      17      16      18
     22       1      16      18      19
     23       1      18      19      20
     24       1      18      19      21
     25       1      20      19      21
     26       1      19      21      22
     27       1      21      22      23
     28       1      21      22      24
     29       1      23      22      24
     30       1      22      24      25
     31       1      24      25      26
     32       1      24      25      27
     33       1      26      25      27
     34       1      25      27      28
     35       1      27      28      29
     36       1      27      28      30
     37       1      29      28      30
     38       1      28      30      31
     39       1      30      31      32
     40       1      30      31      33
     41       1      32      31      33
     42       1      31      33      34
     43       1      33      34      35
     44       1      33      34      36
     45       1      35      34      36
     46       1      34      36      37
     47       1      36      37      38
     48       1      36      37      39
     49       1      38      37      39
     50       1      37      39      40
     51       1      39      40      41
     52       1      39      40      42
     53       1      41      40      42
     54       1      40      42      43
     55       1      42      43      44
     56       1      42      43      45
     57       1      44      43      45
     58       1      43      45      46
     59       1      45      46      47
     60       1      49      48      50
     61       1      48      50      51
     62       1      50      51      52
     63       1      50      51      53
     64       1      52      51      53
     65       1      51      53      54
     66       1      53      54      55
     67       1      53      54      56
     68       1      55      54      56
     69       1      54      56      57
     70       1      56      57      58
     71       1      56      57      59
     72       1      58      57      59
     73       1      57      59      60
     74       1      59      60      61
     75       1      59      60      62
     76       1      61      60      62
     77       1      60      62      63
     78       1      62      63      64
     79       1      62      63      65
     80       1      64      63      65
     81       1      63      65      66
     82       1      65      66      67
     83       1      65      66      68
     84       1      67      66      68
     85       1      66      68      69
     86       1      68      69      70
     87       1      68      69      71
     88       1      70      69      71
     89       1      69      71      72
     90       1      71      72      73
     91       1      71      72      74
     92       1      73      72      74
     93       1      72      74      75
     94       1      74      75      76
     95       1      74      75      77
     96       1      76      75      77
     97       1      75      77      78
     98       1      77      78      79
     99       1      77      78      80
    100       1      79      78      80
    101       1      78      80      81
    102       1      80      81      82
    103       1      80      81      83
    104       1      82      81      83
    105       1      81      83      84
    106       1      83      84      85
    107       1      83      84      86
    108       1      85      84      86
    109       1      84      86      87
    110       1      86      87      88
    111       1      86      87      89
    112       1      88      87      89
    113       1      87      89      90
    114       1      89      90      91
    115       1      89      90      92
    116       1      91      90      92
    117       1      90      92      93
    118       1      92      93      94
    119       8       1       2       5
    120      11       4       5       8
    121       8       7       8      11
    122      11      10      11      14
    123       9      13      14      17
    124      14      16      17      20
    125       2      19      20      23
    126       4      22      23      26
    127      11      25      26      29
    128       8      28      29      32
    129      12      31      32      35
    130      13      34      35      38
    131      15      37      38      41
    132       8      40      41      44
    133      11      43      44      47
    134       5      48      49      52
    135      14      51      52      55
    136       4      54      55      58
    137      13      57      58      61
    138      17      60      61      64
    139      14      63      64      67
    140       5      66      67      70
    141      15      69      70      73
    142       7      72      73      76
    143       8      75      76      79
    144      10      78      79      82
    145       5      81      82      85
    146      14      84      85      88
    147       5      87      88      91
    148      14      90      91      94

Dihedrals

      1       1       2       1       3       4
      2       1       1       3       4       5
      3       1       1       3       4       6
      4       1       3       4       6       7
      5       1       5       4       6       7
      6       1       4       6       7       8
      7       1       4       6       7       9
      8       1       6       7       9      10
      9       1       8       7       9      10
     10       1       7       9      10      11
     11       1       7       9      10      12
     12       1       9      10      12      13
     13       1      11      10      12      13
     14       1      10      12      13      14
     15       1      10      12      13      15
     16       1      12      13      15      16
     17       1      14      13      15      16
     18       1      13      15      16      17
     19       1      13      15      16      18
     20       1      15      16      18      19
     21       1      17      16      18      19
     22       1      16      18      19      20
     23       1      16      18      19      21
     24       1      18      19      21      22
     25       1      20      19      21      22
     26       1      19      21      22      23
     27       1      19      21      22      24
     28       1      21      22      24      25
     29       1      23      22      24      25
     30       1      22      24      25      26
     31       1      22      24      25      27
     32       1      24      25      27      28
     33       1      26      25      27      28
     34       1      25      27      28      29
     35       1      25      27      28      30
     36       1      27      28      30      31
     37       1      29      28      30      31
     38       1      28      30      31      32
     39       1      28      30      31      33
     40       1      30      31      33      34
     41       1      32      31      33      34
     42       1      31      33      34      35
     43       1      31      33      34      36
     44       1      33      34      36      37
     45       1      35      34      36      37
     46       1      34      36      37      38
     47       1      34      36      37      39
     48       1      36      37      39      40
     49       1      38      37      39      40
     50       1      37      39      40      41
     51       1      37      39      40      42
     52       1      39      40      42      43
     53       1      41      40      42      43
     54       1      40      42      43      44
     55       1      40      42      43      45
     56       1      42      43      45      46
     57       1      44      43      45      46
     58       1      43      45      46      47
     59       1      49      48      50      51
     60       1      48      50      51      52
     61       1      48      50      51      53
     62       1      50      51      53      54
     63       1      52      51      53      54
     64       1      51      53      54      55
     65       1      51      53      54      56
     66       1      53      54      56      57
     67       1      55      54      56      57
     68       1      54      56      57      58
     69       1      54      56      57      59
     70       1      56      57      59      60
     71       1      58      57      59      60
     72       1      57      59      60      61
     73       1      57      59      60      62
     74       1      59      60      62      63
     75       1      61      60      62      63
     76       1      60      62      63      64
     77       1      60      62      63      65
     78       1      62      63      65      66
     79       1      64      63      65      66
     80       1      63      65      66      67
     81       1      63      65      66      68
     82       1      65      66      68      69
     83       1      67      66      68      69
     84       1      66      68      69      70
     85       1      66      68      69      71
     86       1      68      69      71      72
     87       1      70      69      71      72
     88       1      69      71      72      73
     89       1      69      71      72      74
     90       1      71      72      74      75
     91       1      73      72      74      75
     92       1      72      74      75      76
     93       1      72      74      75      77
     94       1      74      75      77      78
     95       1      76      75      77      78
     96       1      75      77      78      79
     97       1      75      77      78      80
     98       1      77      78      80      81
     99       1      79      78      80      81
    100       1      78      80      81      82
    101       1      78      80      81      83
    102       1      80      81      83      84
    103       1      82      81      83      84
    104       1      81      83      84      85
    105       1      81      83      84      86
    106       1      83      84      86      87
    107       1      85      84      86      87
    108       1      84      86      87      88
    109       1      84      86      87      89
    110       1      86      87      89      90
    111       1      88      87      89      90
    112       1      87      89      90      91
    113       1      87      89      90      92
    114       1      89      90      92      93
    115       1      91      90      92      93
    116       1      90      92      93      94

