ITEM: TIMESTEP
0
ITEM: NUMBER OF ENTRIES
209
ITEM: BOX BOUNDS pp pp pp
-1000 1000
-1000 1000
-1000 1000
ITEM: ENTRIES index c_angle_atoms[1] c_angle_atoms[2] c_angle_atoms[3] c_angle_atoms[4] c_angle_data[1] c_angle_data[2] 
1 1 2 3 18 0.305501 118.141 
2 2 3 4 18 1.1251 96.3064 
3 3 4 5 18 6.47623 76.2218 
4 4 5 6 18 0.193578 104.707 
5 5 6 7 18 0.0365866 113.249 
6 6 7 8 18 2.22554e-06 110.64 
7 7 8 9 18 0.654013 121.605 
8 8 9 10 18 3.69421 136.671 
9 9 10 11 18 0.0209594 112.62 
10 10 11 12 18 13.7889 60.4088 
11 11 12 13 18 1.21809 125.596 
12 12 13 14 18 3.07882 86.9152 
13 13 14 15 18 2.17498 90.7028 
14 14 15 16 18 7.29243 74.116 
15 15 16 17 18 3.28757 86.1235 
16 16 17 18 18 5.08719 80.1377 
17 17 18 19 18 11.6036 64.5625 
18 18 19 20 18 0.181711 104.892 
19 19 20 21 18 2.19547 90.609 
20 20 21 22 18 5.18326 79.8509 
21 21 22 23 18 5.80166 78.0647 
22 22 23 24 18 0.0395618 107.969 
23 23 24 25 18 7.13408 146.806 
24 24 25 26 18 0.0203829 112.593 
25 25 26 27 18 0.000225633 110.864 
26 26 27 28 18 0.223627 104.261 
27 27 28 29 18 0.184505 116.474 
28 28 29 30 18 1.34847 126.375 
29 29 30 31 18 8.0019 72.3796 
30 30 31 32 18 1.94429 91.7909 
31 31 32 33 18 0.689083 99.427 
32 32 33 34 18 4.60173 81.6306 
33 33 34 35 18 10.4826 66.8458 
34 34 35 36 18 5.18667 79.8407 
35 35 36 37 18 0.00774751 109.47 
36 36 37 38 18 1.52405 93.9541 
37 37 38 39 18 0.439937 101.685 
38 38 39 40 18 5.54099 78.8054 
39 39 40 41 18 11.1713 65.4293 
40 40 41 42 18 0.553877 120.732 
41 41 42 43 18 0.868143 123.27 
42 42 43 44 18 10.1632 67.5184 
43 43 44 45 18 0.465232 119.891 
44 44 45 46 18 5.40912 79.1868 
45 45 46 47 18 1.44703 94.3817 
46 46 47 48 18 1.16992 96.0232 
47 47 48 49 18 0.50406 101.053 
48 48 49 50 18 1.72489 92.8874 
49 49 50 51 18 8.77119 70.5817 
50 50 51 52 18 5.18709 79.8395 
51 51 52 53 18 0.42234 119.455 
52 52 53 54 18 13.1448 61.5965 
53 53 54 55 18 1.51796 93.9875 
54 54 55 56 18 5.69137 78.376 
55 55 56 57 18 0.672955 99.5592 
56 56 57 58 18 0.599271 100.185 
57 57 58 59 18 0.643914 99.8014 
58 58 59 60 18 2.25384 90.3442 
59 59 60 61 18 0.302711 118.106 
60 60 61 62 18 1.19691 95.8554 
61 61 62 63 18 16.288 56.0445 
62 65 64 66 1 0 169.5 
63 64 65 68 8 -0.000746113 77.9756 
64 64 66 67 1 0 90.5376 
65 66 67 68 1 0 97.9676 
66 66 67 69 1 0 148.653 
67 68 67 69 1 0 113.363 
68 67 68 71 11 -0.027551 63.0705 
69 67 69 70 1 0 111.983 
70 69 70 71 1 0 91.3712 
71 69 70 72 1 0 130.399 
72 71 70 72 1 0 138.087 
73 70 71 74 8 244.67 85.8459 
74 70 72 73 1 0 95.9011 
75 72 73 74 1 0 85.3241 
76 72 73 75 1 0 152.418 
77 74 73 75 1 0 120.418 
78 73 74 77 11 -0.194756 69.2709 
79 73 75 76 1 0 84.4547 
80 75 76 77 1 0 144.745 
81 75 76 78 1 0 94.6138 
82 77 76 78 1 0 114.843 
83 76 77 80 9 646.747 113.516 
84 76 78 79 1 0 86.6134 
85 78 79 80 1 0 105.772 
86 78 79 81 1 0 103.217 
87 80 79 81 1 0 146.486 
88 79 80 83 14 -0.546051 85.1961 
89 79 81 82 1 0 88.0682 
90 81 82 83 1 0 116.313 
91 81 82 84 1 0 154.113 
92 83 82 84 1 0 87.7381 
93 82 83 86 2 959.326 105.671 
94 82 84 85 1 0 110.966 
95 84 85 86 1 0 103.534 
96 84 85 87 1 0 102.325 
97 86 85 87 1 0 152.947 
98 85 86 89 4 747.38 82.2244 
99 85 87 88 1 0 53.0499 
100 87 88 89 1 0 115.124 
101 87 88 90 1 0 102.057 
102 89 88 90 1 0 116.893 
103 88 89 92 11 -0.775526 107.547 
104 88 90 91 1 0 79.3592 
105 90 91 92 1 0 124.223 
106 90 91 93 1 0 129.298 
107 92 91 93 1 0 96.9776 
108 91 92 95 8 551.997 109.313 
109 91 93 94 1 0 90.1558 
110 93 94 95 1 0 141.544 
111 93 94 96 1 0 109.791 
112 95 94 96 1 0 100.729 
113 94 95 98 12 4.44775 105.465 
114 94 96 97 1 0 91.1779 
115 96 97 98 1 0 136.538 
116 96 97 99 1 0 122.357 
117 98 97 99 1 0 100.473 
118 97 98 101 13 -0.0006404 85.3016 
119 97 99 100 1 0 117.849 
120 99 100 101 1 0 105.36 
121 99 100 102 1 0 112.974 
122 101 100 102 1 0 126.546 
123 100 101 104 15 4027.5 104.535 
124 100 102 103 1 0 82.8612 
125 102 103 104 1 0 90.1923 
126 102 103 105 1 0 102.191 
127 104 103 105 1 0 133.79 
128 103 104 107 8 -0.125022 85.63 
129 103 105 106 1 0 80.337 
130 105 106 107 1 0 114.466 
131 105 106 108 1 0 115.635 
132 107 106 108 1 0 128.358 
133 106 107 110 11 -0.0446097 74.7171 
134 106 108 109 1 0 68.454 
135 108 109 110 1 0 106.622 
136 112 111 113 1 0 116.599 
137 111 112 115 5 -0.00566715 85.6573 
138 111 113 114 1 0 72.5817 
139 113 114 115 1 0 133.791 
140 113 114 116 1 0 96.7942 
141 115 114 116 1 0 129.41 
142 114 115 118 14 5690.53 89.7184 
143 114 116 117 1 0 92.8447 
144 116 117 118 1 0 103.745 
145 116 117 119 1 0 136.939 
146 118 117 119 1 0 119.312 
147 117 118 121 4 -0.0206651 103.232 
148 117 119 120 1 0 106.796 
149 119 120 121 1 0 118.377 
150 119 120 122 1 0 136.895 
151 121 120 122 1 0 104.328 
152 120 121 124 13 -0.00719192 59.3824 
153 120 122 123 1 0 134.319 
154 122 123 124 1 0 77.546 
155 122 123 125 1 0 147.205 
156 124 123 125 1 0 111.568 
157 123 124 127 17 152.425 76.5895 
158 123 125 126 1 0 96.3201 
159 125 126 127 1 0 92.9868 
160 125 126 128 1 0 122.56 
161 127 126 128 1 0 142.649 
162 126 127 130 14 -0.418769 86.2611 
163 126 128 129 1 0 64.1733 
164 128 129 130 1 0 126.102 
165 128 129 131 1 0 111.955 
166 130 129 131 1 0 98.9202 
167 129 130 133 5 -0.479956 98.6251 
168 129 131 132 1 0 112.547 
169 131 132 133 1 0 84.1448 
170 131 132 134 1 0 124.677 
171 133 132 134 1 0 142.587 
172 132 133 136 15 28.8071 109.361 
173 132 134 135 1 0 75.7937 
174 134 135 136 1 0 127.327 
175 134 135 137 1 0 121.926 
176 136 135 137 1 0 105.012 
177 135 136 139 7 3034.66 95.0834 
178 135 137 138 1 0 104.533 
179 137 138 139 1 0 93.001 
180 137 138 140 1 0 154.749 
181 139 138 140 1 0 108.484 
182 138 139 142 8 -0.361816 88.8882 
183 138 140 141 1 0 117.101 
184 140 141 142 1 0 105.855 
185 140 141 143 1 0 159.679 
186 142 141 143 1 0 93.5968 
187 141 142 145 10 128.82 92.3038 
188 141 143 144 1 0 106.634 
189 143 144 145 1 0 94.3663 
190 143 144 146 1 0 104.236 
191 145 144 146 1 0 158 
192 144 145 148 5 0 55.7496 
193 144 146 147 1 0 56.38 
194 146 147 148 1 0 105.879 
195 146 147 149 1 0 95.8864 
196 148 147 149 1 0 130.733 
197 147 148 151 14 -0.682697 81.1157 
198 147 149 150 1 0 86.6426 
199 149 150 151 1 0 86.9668 
200 149 150 152 1 0 145.022 
201 151 150 152 1 0 127.83 
202 150 151 154 5 -0.141039 68.3487 
203 150 152 153 1 0 88.4506 
204 152 153 154 1 0 119.532 
205 152 153 155 1 0 121.455 
206 154 153 155 1 0 118.827 
207 153 154 157 14 -0.223916 88.8136 
208 153 155 156 1 0 107.246 
209 155 156 157 1 0 114.268 
