LAMMPS (5 Nov 2016)
Processor partition = 0
# Test system for LAMMPS simulation

units               real
atom_style          awsemmd
boundary            p p p
newton              on  #yes

#   ---         Variables for debye huckel potential        ---     #
#   parallel replica temperatures
variable            T   equal  300
#variable            JOBIDX   world   0 1 2 3 4 5
variable v1 equal random(1,1000,22226)
#variable            random      equal   round(v_v1)+v_JOBIDX
variable            random      equal   12345

variable            salt        equal   150.0       # Salt concentration [mM]
variable            ldby        equal   7.853761348027935   # debye screen length, depend on both T and salt, determined from known formula given that dielec=78
variable            ldbi        equal   1.0/v_ldby  # debye screen length
variable            cut_coul    equal   40.0

variable            cut_lj      equal   15.0
variable            cut_lj_pair equal   20.0
variable            dielec      equal   78.0

read_data           /nobackup1c/users/smliu/smog-3spn2c-openmm/lammps-1nk3/correct-coord/data.prot_dna_corrected
  orthogonal box = (-1000 -1000 -1000) to (1000 1000 1000)
  1 by 1 by 1 MPI processor grid
  reading atoms ...
  157 atoms
  scanning bonds ...
  2 = max bonds/atom
  scanning angles ...
  3 = max angles/atom
  scanning dihedrals ...
  2 = max dihedrals/atom
  reading bonds ...
  154 bonds
  reading angles ...
  209 angles
  reading dihedrals ...
  176 dihedrals
  3 = max # of 1-2 neighbors
  4 = max # of 1-3 neighbors
  6 = max # of 1-4 neighbors
  9 = max # of special neighbors
read_dump           ../../perturbed.dcd 0 x y z box no format molfile dcd /home/xclin/lib/vmd.old/plugins/LINUXAMD64/molfile
Dump reader uses molfile plugin: CHARMM,NAMD,XPLOR DCD Trajectory v1.11 by Axel Kohlmeyer, Justin Gullingsrud, John Stone
  orthogonal box = (-1000 -1000 -1000) to (1000 1000 1000)
  157 atoms before read
  157 atoms in snapshot
  0 atoms purged
  157 atoms replaced
  0 atoms trimmed
  0 atoms added
  157 atoms after read
#read_dump           DUMP_FILE.dcd.bak 9 x y z  format molfile dcd /home/xclin/lib/vmd/plugins/LINUXAMD64/molfile

variable            inputdir    string "/nobackup1c/users/smliu/smog-3spn2c-openmm/lammps-1nk3/setup/post_processing"
# Specify the different interaction styles
bond_style          hybrid list ${inputdir}/dna_list_files/in00_bond.list list/ca ${inputdir}/prot_list_files/ca_bond_list.txt
bond_style          hybrid list /nobackup1c/users/smliu/smog-3spn2c-openmm/lammps-1nk3/setup/post_processing/dna_list_files/in00_bond.list list/ca ${inputdir}/prot_list_files/ca_bond_list.txt
bond_style          hybrid list /nobackup1c/users/smliu/smog-3spn2c-openmm/lammps-1nk3/setup/post_processing/dna_list_files/in00_bond.list list/ca /nobackup1c/users/smliu/smog-3spn2c-openmm/lammps-1nk3/setup/post_processing/prot_list_files/ca_bond_list.txt
angle_style         hybrid stacking/3spn2   list    ${inputdir}/dna_list_files/in00_angl.list list/ca ${inputdir}/prot_list_files/ca_angle_list.txt
angle_style         hybrid stacking/3spn2   list    /nobackup1c/users/smliu/smog-3spn2c-openmm/lammps-1nk3/setup/post_processing/dna_list_files/in00_angl.list list/ca ${inputdir}/prot_list_files/ca_angle_list.txt
angle_style         hybrid stacking/3spn2   list    /nobackup1c/users/smliu/smog-3spn2c-openmm/lammps-1nk3/setup/post_processing/dna_list_files/in00_angl.list list/ca /nobackup1c/users/smliu/smog-3spn2c-openmm/lammps-1nk3/setup/post_processing/prot_list_files/ca_angle_list.txt
dihedral_style      hybrid list ${inputdir}/dna_list_files/in00_dihe.list list/ca ${inputdir}/prot_list_files/ca_dihed_list.txt
dihedral_style      hybrid list /nobackup1c/users/smliu/smog-3spn2c-openmm/lammps-1nk3/setup/post_processing/dna_list_files/in00_dihe.list list/ca ${inputdir}/prot_list_files/ca_dihed_list.txt
dihedral_style      hybrid list /nobackup1c/users/smliu/smog-3spn2c-openmm/lammps-1nk3/setup/post_processing/dna_list_files/in00_dihe.list list/ca /nobackup1c/users/smliu/smog-3spn2c-openmm/lammps-1nk3/setup/post_processing/prot_list_files/ca_dihed_list.txt
#pair_style          hybrid/overlay 3spn2 bdna/curv ${T} ${salt} 18.0 50.0 lj12/cut/coul/debye ${inputdir}/prot_list_files/exclusion_list.txt ${ldbi} ${cut_lj} ${cut_coul} list ${inputdir}/prot_list_files/ca_pair_list.txt ${cut_lj_pair} nocheck lj/cut/coul/debye ${ldbi} 10.0 ${cut_coul}
pair_style          hybrid/overlay 3spn2 bdna/curv ${T} ${salt} 18.0 50.0 list ${inputdir}/prot_list_files/ca_pair_list.txt ${cut_lj_pair} nocheck lj/cut/coul/debye ${ldbi} 10.0 ${cut_coul}
pair_style          hybrid/overlay 3spn2 bdna/curv 300 ${salt} 18.0 50.0 list ${inputdir}/prot_list_files/ca_pair_list.txt ${cut_lj_pair} nocheck lj/cut/coul/debye ${ldbi} 10.0 ${cut_coul}
pair_style          hybrid/overlay 3spn2 bdna/curv 300 150 18.0 50.0 list ${inputdir}/prot_list_files/ca_pair_list.txt ${cut_lj_pair} nocheck lj/cut/coul/debye ${ldbi} 10.0 ${cut_coul}
pair_style          hybrid/overlay 3spn2 bdna/curv 300 150 18.0 50.0 list /nobackup1c/users/smliu/smog-3spn2c-openmm/lammps-1nk3/setup/post_processing/prot_list_files/ca_pair_list.txt ${cut_lj_pair} nocheck lj/cut/coul/debye ${ldbi} 10.0 ${cut_coul}
pair_style          hybrid/overlay 3spn2 bdna/curv 300 150 18.0 50.0 list /nobackup1c/users/smliu/smog-3spn2c-openmm/lammps-1nk3/setup/post_processing/prot_list_files/ca_pair_list.txt 20 nocheck lj/cut/coul/debye ${ldbi} 10.0 ${cut_coul}
pair_style          hybrid/overlay 3spn2 bdna/curv 300 150 18.0 50.0 list /nobackup1c/users/smliu/smog-3spn2c-openmm/lammps-1nk3/setup/post_processing/prot_list_files/ca_pair_list.txt 20 nocheck lj/cut/coul/debye 0.127327525714936 10.0 ${cut_coul}
pair_style          hybrid/overlay 3spn2 bdna/curv 300 150 18.0 50.0 list /nobackup1c/users/smliu/smog-3spn2c-openmm/lammps-1nk3/setup/post_processing/prot_list_files/ca_pair_list.txt 20 nocheck lj/cut/coul/debye 0.127327525714936 10.0 40
Read 117 (0/0/0/117) interacting pairs from /nobackup1c/users/smliu/smog-3spn2c-openmm/lammps-1nk3/setup/post_processing/prot_list_files/ca_pair_list.txt
pair_coeff          * * list

dielectric          ${dielec}
dielectric          78

# read in pair interaction
include           /nobackup1c/users/smliu/smog-3spn2c-openmm/ff-ppInt/proteinDna_pairCoeff_variable_cut_coul.in

# dna pair-wise interaction
pair_coeff      1      1 3spn2      0.23900600      4.50000000
pair_coeff      1      2 3spn2      0.23900600      5.35000000
pair_coeff      1      3 3spn2      0.23900600      4.95000000
pair_coeff      1      4 3spn2      0.23900600      5.80000000
pair_coeff      1      5 3spn2      0.23900600      4.70000000
pair_coeff      1      6 3spn2      0.23900600      5.45000000
pair_coeff      1      7 3spn2      0.23900600      4.95000000
pair_coeff      1      8 3spn2      0.23900600      5.80000000
pair_coeff      1      9 3spn2      0.23900600      4.70000000
pair_coeff      1     10 3spn2      0.23900600      5.45000000
pair_coeff      1     11 3spn2      0.23900600      4.95000000
pair_coeff      1     12 3spn2      0.23900600      5.80000000
pair_coeff      1     13 3spn2      0.23900600      4.70000000
pair_coeff      1     14 3spn2      0.23900600      5.45000000
pair_coeff      2      2 3spn2      0.23900600      6.20000000
pair_coeff      2      3 3spn2      0.23900600      5.80000000
pair_coeff      2      4 3spn2      0.23900600      6.65000000
pair_coeff      2      5 3spn2      0.23900600      5.55000000
pair_coeff      2      6 3spn2      0.23900600      6.30000000
pair_coeff      2      7 3spn2      0.23900600      5.80000000
pair_coeff      2      8 3spn2      0.23900600      6.65000000
pair_coeff      2      9 3spn2      0.23900600      5.55000000
pair_coeff      2     10 3spn2      0.23900600      6.30000000
pair_coeff      2     11 3spn2      0.23900600      5.80000000
pair_coeff      2     12 3spn2      0.23900600      6.65000000
pair_coeff      2     13 3spn2      0.23900600      5.55000000
pair_coeff      2     14 3spn2      0.23900600      6.30000000
pair_coeff      3      3 3spn2      0.23900600      5.40000000
pair_coeff      3      4 3spn2      0.23900600      6.25000000
pair_coeff      3      5 3spn2      0.23900600      5.15000000
pair_coeff      3      6 3spn2      0.23900600      5.90000000
pair_coeff      3      7 3spn2      0.23900600      5.40000000
pair_coeff      3      8 3spn2      0.23900600      6.25000000
pair_coeff      3      9 3spn2      0.23900600      5.15000000
pair_coeff      3     10 3spn2      0.23900600      5.90000000
pair_coeff      3     11 3spn2      0.23900600      5.40000000
pair_coeff      3     12 3spn2      0.23900600      6.25000000
pair_coeff      3     13 3spn2      0.23900600      5.15000000
pair_coeff      3     14 3spn2      0.23900600      5.90000000
pair_coeff      4      4 3spn2      0.23900600      7.10000000
pair_coeff      4      5 3spn2      0.23900600      6.00000000
pair_coeff      4      6 3spn2      0.23900600      6.75000000
pair_coeff      4      7 3spn2      0.23900600      6.25000000
pair_coeff      4      8 3spn2      0.23900600      7.10000000
pair_coeff      4      9 3spn2      0.23900600      6.00000000
pair_coeff      4     10 3spn2      0.23900600      6.75000000
pair_coeff      4     11 3spn2      0.23900600      6.25000000
pair_coeff      4     12 3spn2      0.23900600      7.10000000
pair_coeff      4     13 3spn2      0.23900600      6.00000000
pair_coeff      4     14 3spn2      0.23900600      6.75000000
pair_coeff      5      5 3spn2      0.23900600      4.90000000
pair_coeff      5      6 3spn2      0.23900600      5.65000000
pair_coeff      5      7 3spn2      0.23900600      5.15000000
pair_coeff      5      8 3spn2      0.23900600      6.00000000
pair_coeff      5      9 3spn2      0.23900600      4.90000000
pair_coeff      5     10 3spn2      0.23900600      5.65000000
pair_coeff      5     11 3spn2      0.23900600      5.15000000
pair_coeff      5     12 3spn2      0.23900600      6.00000000
pair_coeff      5     13 3spn2      0.23900600      4.90000000
pair_coeff      5     14 3spn2      0.23900600      5.65000000
pair_coeff      6      6 3spn2      0.23900600      6.40000000
pair_coeff      6      7 3spn2      0.23900600      5.90000000
pair_coeff      6      8 3spn2      0.23900600      6.75000000
pair_coeff      6      9 3spn2      0.23900600      5.65000000
pair_coeff      6     10 3spn2      0.23900600      6.40000000
pair_coeff      6     11 3spn2      0.23900600      5.90000000
pair_coeff      6     12 3spn2      0.23900600      6.75000000
pair_coeff      6     13 3spn2      0.23900600      5.65000000
pair_coeff      6     14 3spn2      0.23900600      6.40000000
pair_coeff      7      7 3spn2      0.23900600      5.40000000
pair_coeff      7      8 3spn2      0.23900600      6.25000000
pair_coeff      7      9 3spn2      0.23900600      5.15000000
pair_coeff      7     10 3spn2      0.23900600      5.90000000
pair_coeff      7     11 3spn2      0.23900600      5.40000000
pair_coeff      7     12 3spn2      0.23900600      6.25000000
pair_coeff      7     13 3spn2      0.23900600      5.15000000
pair_coeff      7     14 3spn2      0.23900600      5.90000000
pair_coeff      8      8 3spn2      0.23900600      7.10000000
pair_coeff      8      9 3spn2      0.23900600      6.00000000
pair_coeff      8     10 3spn2      0.23900600      6.75000000
pair_coeff      8     11 3spn2      0.23900600      6.25000000
pair_coeff      8     12 3spn2      0.23900600      7.10000000
pair_coeff      8     13 3spn2      0.23900600      6.00000000
pair_coeff      8     14 3spn2      0.23900600      6.75000000
pair_coeff      9      9 3spn2      0.23900600      4.90000000
pair_coeff      9     10 3spn2      0.23900600      5.65000000
pair_coeff      9     11 3spn2      0.23900600      5.15000000
pair_coeff      9     12 3spn2      0.23900600      6.00000000
pair_coeff      9     13 3spn2      0.23900600      4.90000000
pair_coeff      9     14 3spn2      0.23900600      5.65000000
pair_coeff     10     10 3spn2      0.23900600      6.40000000
pair_coeff     10     11 3spn2      0.23900600      5.90000000
pair_coeff     10     12 3spn2      0.23900600      6.75000000
pair_coeff     10     13 3spn2      0.23900600      5.65000000
pair_coeff     10     14 3spn2      0.23900600      6.40000000
pair_coeff     11     11 3spn2      0.23900600      5.40000000
pair_coeff     11     12 3spn2      0.23900600      6.25000000
pair_coeff     11     13 3spn2      0.23900600      5.15000000
pair_coeff     11     14 3spn2      0.23900600      5.90000000
pair_coeff     12     12 3spn2      0.23900600      7.10000000
pair_coeff     12     13 3spn2      0.23900600      6.00000000
pair_coeff     12     14 3spn2      0.23900600      6.75000000
pair_coeff     13     13 3spn2      0.23900600      4.90000000
pair_coeff     13     14 3spn2      0.23900600      5.65000000
pair_coeff     14     14 3spn2      0.23900600      6.40000000

# protein dna pair-wise interaction
pair_coeff      1     15 lj/cut/coul/debye      0.02987572      5.70000000     14.25000000     ${cut_coul}
pair_coeff      1     15 lj/cut/coul/debye      0.02987572      5.70000000     14.25000000     40
pair_coeff      1     16 lj/cut/coul/debye      0.02987572      5.70000000     14.25000000     ${cut_coul}
pair_coeff      1     16 lj/cut/coul/debye      0.02987572      5.70000000     14.25000000     40
pair_coeff      1     17 lj/cut/coul/debye      0.02987572      5.70000000     14.25000000     ${cut_coul}
pair_coeff      1     17 lj/cut/coul/debye      0.02987572      5.70000000     14.25000000     40
pair_coeff      1     18 lj/cut/coul/debye      0.02987572      5.70000000     14.25000000     ${cut_coul}
pair_coeff      1     18 lj/cut/coul/debye      0.02987572      5.70000000     14.25000000     40
pair_coeff      1     19 lj/cut/coul/debye      0.02987572      5.70000000     14.25000000     ${cut_coul}
pair_coeff      1     19 lj/cut/coul/debye      0.02987572      5.70000000     14.25000000     40
pair_coeff      1     20 lj/cut/coul/debye      0.02987572      5.70000000     14.25000000     ${cut_coul}
pair_coeff      1     20 lj/cut/coul/debye      0.02987572      5.70000000     14.25000000     40
pair_coeff      1     21 lj/cut/coul/debye      0.02987572      5.70000000     14.25000000     ${cut_coul}
pair_coeff      1     21 lj/cut/coul/debye      0.02987572      5.70000000     14.25000000     40
pair_coeff      1     22 lj/cut/coul/debye      0.02987572      5.70000000     14.25000000     ${cut_coul}
pair_coeff      1     22 lj/cut/coul/debye      0.02987572      5.70000000     14.25000000     40
pair_coeff      1     23 lj/cut/coul/debye      0.02987572      5.70000000     14.25000000     ${cut_coul}
pair_coeff      1     23 lj/cut/coul/debye      0.02987572      5.70000000     14.25000000     40
pair_coeff      1     24 lj/cut/coul/debye      0.02987572      5.70000000     14.25000000     ${cut_coul}
pair_coeff      1     24 lj/cut/coul/debye      0.02987572      5.70000000     14.25000000     40
pair_coeff      1     25 lj/cut/coul/debye      0.02987572      5.70000000     14.25000000     ${cut_coul}
pair_coeff      1     25 lj/cut/coul/debye      0.02987572      5.70000000     14.25000000     40
pair_coeff      1     26 lj/cut/coul/debye      0.02987572      5.70000000     14.25000000     ${cut_coul}
pair_coeff      1     26 lj/cut/coul/debye      0.02987572      5.70000000     14.25000000     40
pair_coeff      1     27 lj/cut/coul/debye      0.02987572      5.70000000     14.25000000     ${cut_coul}
pair_coeff      1     27 lj/cut/coul/debye      0.02987572      5.70000000     14.25000000     40
pair_coeff      1     28 lj/cut/coul/debye      0.02987572      5.70000000     14.25000000     ${cut_coul}
pair_coeff      1     28 lj/cut/coul/debye      0.02987572      5.70000000     14.25000000     40
pair_coeff      1     29 lj/cut/coul/debye      0.02987572      5.70000000     14.25000000     ${cut_coul}
pair_coeff      1     29 lj/cut/coul/debye      0.02987572      5.70000000     14.25000000     40
pair_coeff      1     30 lj/cut/coul/debye      0.02987572      5.70000000     14.25000000     ${cut_coul}
pair_coeff      1     30 lj/cut/coul/debye      0.02987572      5.70000000     14.25000000     40
pair_coeff      1     31 lj/cut/coul/debye      0.02987572      5.70000000     14.25000000     ${cut_coul}
pair_coeff      1     31 lj/cut/coul/debye      0.02987572      5.70000000     14.25000000     40
pair_coeff      1     32 lj/cut/coul/debye      0.02987572      5.70000000     14.25000000     ${cut_coul}
pair_coeff      1     32 lj/cut/coul/debye      0.02987572      5.70000000     14.25000000     40
pair_coeff      1     33 lj/cut/coul/debye      0.02987572      5.70000000     14.25000000     ${cut_coul}
pair_coeff      1     33 lj/cut/coul/debye      0.02987572      5.70000000     14.25000000     40
pair_coeff      1     34 lj/cut/coul/debye      0.02987572      5.70000000     14.25000000     ${cut_coul}
pair_coeff      1     34 lj/cut/coul/debye      0.02987572      5.70000000     14.25000000     40
pair_coeff      2     15 lj/cut/coul/debye      0.02987572      5.70000000     14.25000000     ${cut_coul}
pair_coeff      2     15 lj/cut/coul/debye      0.02987572      5.70000000     14.25000000     40
pair_coeff      2     16 lj/cut/coul/debye      0.02987572      5.70000000     14.25000000     ${cut_coul}
pair_coeff      2     16 lj/cut/coul/debye      0.02987572      5.70000000     14.25000000     40
pair_coeff      2     17 lj/cut/coul/debye      0.02987572      5.70000000     14.25000000     ${cut_coul}
pair_coeff      2     17 lj/cut/coul/debye      0.02987572      5.70000000     14.25000000     40
pair_coeff      2     18 lj/cut/coul/debye      0.02987572      5.70000000     14.25000000     ${cut_coul}
pair_coeff      2     18 lj/cut/coul/debye      0.02987572      5.70000000     14.25000000     40
pair_coeff      2     19 lj/cut/coul/debye      0.02987572      5.70000000     14.25000000     ${cut_coul}
pair_coeff      2     19 lj/cut/coul/debye      0.02987572      5.70000000     14.25000000     40
pair_coeff      2     20 lj/cut/coul/debye      0.02987572      5.70000000     14.25000000     ${cut_coul}
pair_coeff      2     20 lj/cut/coul/debye      0.02987572      5.70000000     14.25000000     40
pair_coeff      2     21 lj/cut/coul/debye      0.02987572      5.70000000     14.25000000     ${cut_coul}
pair_coeff      2     21 lj/cut/coul/debye      0.02987572      5.70000000     14.25000000     40
pair_coeff      2     22 lj/cut/coul/debye      0.02987572      5.70000000     14.25000000     ${cut_coul}
pair_coeff      2     22 lj/cut/coul/debye      0.02987572      5.70000000     14.25000000     40
pair_coeff      2     23 lj/cut/coul/debye      0.02987572      5.70000000     14.25000000     ${cut_coul}
pair_coeff      2     23 lj/cut/coul/debye      0.02987572      5.70000000     14.25000000     40
pair_coeff      2     24 lj/cut/coul/debye      0.02987572      5.70000000     14.25000000     ${cut_coul}
pair_coeff      2     24 lj/cut/coul/debye      0.02987572      5.70000000     14.25000000     40
pair_coeff      2     25 lj/cut/coul/debye      0.02987572      5.70000000     14.25000000     ${cut_coul}
pair_coeff      2     25 lj/cut/coul/debye      0.02987572      5.70000000     14.25000000     40
pair_coeff      2     26 lj/cut/coul/debye      0.02987572      5.70000000     14.25000000     ${cut_coul}
pair_coeff      2     26 lj/cut/coul/debye      0.02987572      5.70000000     14.25000000     40
pair_coeff      2     27 lj/cut/coul/debye      0.02987572      5.70000000     14.25000000     ${cut_coul}
pair_coeff      2     27 lj/cut/coul/debye      0.02987572      5.70000000     14.25000000     40
pair_coeff      2     28 lj/cut/coul/debye      0.02987572      5.70000000     14.25000000     ${cut_coul}
pair_coeff      2     28 lj/cut/coul/debye      0.02987572      5.70000000     14.25000000     40
pair_coeff      2     29 lj/cut/coul/debye      0.02987572      5.70000000     14.25000000     ${cut_coul}
pair_coeff      2     29 lj/cut/coul/debye      0.02987572      5.70000000     14.25000000     40
pair_coeff      2     30 lj/cut/coul/debye      0.02987572      5.70000000     14.25000000     ${cut_coul}
pair_coeff      2     30 lj/cut/coul/debye      0.02987572      5.70000000     14.25000000     40
pair_coeff      2     31 lj/cut/coul/debye      0.02987572      5.70000000     14.25000000     ${cut_coul}
pair_coeff      2     31 lj/cut/coul/debye      0.02987572      5.70000000     14.25000000     40
pair_coeff      2     32 lj/cut/coul/debye      0.02987572      5.70000000     14.25000000     ${cut_coul}
pair_coeff      2     32 lj/cut/coul/debye      0.02987572      5.70000000     14.25000000     40
pair_coeff      2     33 lj/cut/coul/debye      0.02987572      5.70000000     14.25000000     ${cut_coul}
pair_coeff      2     33 lj/cut/coul/debye      0.02987572      5.70000000     14.25000000     40
pair_coeff      2     34 lj/cut/coul/debye      0.02987572      5.70000000     14.25000000     ${cut_coul}
pair_coeff      2     34 lj/cut/coul/debye      0.02987572      5.70000000     14.25000000     40
pair_coeff      3     15 lj/cut/coul/debye      0.02987572      5.70000000     14.25000000     ${cut_coul}
pair_coeff      3     15 lj/cut/coul/debye      0.02987572      5.70000000     14.25000000     40
pair_coeff      3     16 lj/cut/coul/debye      0.02987572      5.70000000     14.25000000     ${cut_coul}
pair_coeff      3     16 lj/cut/coul/debye      0.02987572      5.70000000     14.25000000     40
pair_coeff      3     17 lj/cut/coul/debye      0.02987572      5.70000000     14.25000000     ${cut_coul}
pair_coeff      3     17 lj/cut/coul/debye      0.02987572      5.70000000     14.25000000     40
pair_coeff      3     18 lj/cut/coul/debye      0.02987572      5.70000000     14.25000000     ${cut_coul}
pair_coeff      3     18 lj/cut/coul/debye      0.02987572      5.70000000     14.25000000     40
pair_coeff      3     19 lj/cut/coul/debye      0.02987572      5.70000000     14.25000000     ${cut_coul}
pair_coeff      3     19 lj/cut/coul/debye      0.02987572      5.70000000     14.25000000     40
pair_coeff      3     20 lj/cut/coul/debye      0.02987572      5.70000000     14.25000000     ${cut_coul}
pair_coeff      3     20 lj/cut/coul/debye      0.02987572      5.70000000     14.25000000     40
pair_coeff      3     21 lj/cut/coul/debye      0.02987572      5.70000000     14.25000000     ${cut_coul}
pair_coeff      3     21 lj/cut/coul/debye      0.02987572      5.70000000     14.25000000     40
pair_coeff      3     22 lj/cut/coul/debye      0.02987572      5.70000000     14.25000000     ${cut_coul}
pair_coeff      3     22 lj/cut/coul/debye      0.02987572      5.70000000     14.25000000     40
pair_coeff      3     23 lj/cut/coul/debye      0.02987572      5.70000000     14.25000000     ${cut_coul}
pair_coeff      3     23 lj/cut/coul/debye      0.02987572      5.70000000     14.25000000     40
pair_coeff      3     24 lj/cut/coul/debye      0.02987572      5.70000000     14.25000000     ${cut_coul}
pair_coeff      3     24 lj/cut/coul/debye      0.02987572      5.70000000     14.25000000     40
pair_coeff      3     25 lj/cut/coul/debye      0.02987572      5.70000000     14.25000000     ${cut_coul}
pair_coeff      3     25 lj/cut/coul/debye      0.02987572      5.70000000     14.25000000     40
pair_coeff      3     26 lj/cut/coul/debye      0.02987572      5.70000000     14.25000000     ${cut_coul}
pair_coeff      3     26 lj/cut/coul/debye      0.02987572      5.70000000     14.25000000     40
pair_coeff      3     27 lj/cut/coul/debye      0.02987572      5.70000000     14.25000000     ${cut_coul}
pair_coeff      3     27 lj/cut/coul/debye      0.02987572      5.70000000     14.25000000     40
pair_coeff      3     28 lj/cut/coul/debye      0.02987572      5.70000000     14.25000000     ${cut_coul}
pair_coeff      3     28 lj/cut/coul/debye      0.02987572      5.70000000     14.25000000     40
pair_coeff      3     29 lj/cut/coul/debye      0.02987572      5.70000000     14.25000000     ${cut_coul}
pair_coeff      3     29 lj/cut/coul/debye      0.02987572      5.70000000     14.25000000     40
pair_coeff      3     30 lj/cut/coul/debye      0.02987572      5.70000000     14.25000000     ${cut_coul}
pair_coeff      3     30 lj/cut/coul/debye      0.02987572      5.70000000     14.25000000     40
pair_coeff      3     31 lj/cut/coul/debye      0.02987572      5.70000000     14.25000000     ${cut_coul}
pair_coeff      3     31 lj/cut/coul/debye      0.02987572      5.70000000     14.25000000     40
pair_coeff      3     32 lj/cut/coul/debye      0.02987572      5.70000000     14.25000000     ${cut_coul}
pair_coeff      3     32 lj/cut/coul/debye      0.02987572      5.70000000     14.25000000     40
pair_coeff      3     33 lj/cut/coul/debye      0.02987572      5.70000000     14.25000000     ${cut_coul}
pair_coeff      3     33 lj/cut/coul/debye      0.02987572      5.70000000     14.25000000     40
pair_coeff      3     34 lj/cut/coul/debye      0.02987572      5.70000000     14.25000000     ${cut_coul}
pair_coeff      3     34 lj/cut/coul/debye      0.02987572      5.70000000     14.25000000     40
pair_coeff      4     15 lj/cut/coul/debye      0.02987572      5.70000000     14.25000000     ${cut_coul}
pair_coeff      4     15 lj/cut/coul/debye      0.02987572      5.70000000     14.25000000     40
pair_coeff      4     16 lj/cut/coul/debye      0.02987572      5.70000000     14.25000000     ${cut_coul}
pair_coeff      4     16 lj/cut/coul/debye      0.02987572      5.70000000     14.25000000     40
pair_coeff      4     17 lj/cut/coul/debye      0.02987572      5.70000000     14.25000000     ${cut_coul}
pair_coeff      4     17 lj/cut/coul/debye      0.02987572      5.70000000     14.25000000     40
pair_coeff      4     18 lj/cut/coul/debye      0.02987572      5.70000000     14.25000000     ${cut_coul}
pair_coeff      4     18 lj/cut/coul/debye      0.02987572      5.70000000     14.25000000     40
pair_coeff      4     19 lj/cut/coul/debye      0.02987572      5.70000000     14.25000000     ${cut_coul}
pair_coeff      4     19 lj/cut/coul/debye      0.02987572      5.70000000     14.25000000     40
pair_coeff      4     20 lj/cut/coul/debye      0.02987572      5.70000000     14.25000000     ${cut_coul}
pair_coeff      4     20 lj/cut/coul/debye      0.02987572      5.70000000     14.25000000     40
pair_coeff      4     21 lj/cut/coul/debye      0.02987572      5.70000000     14.25000000     ${cut_coul}
pair_coeff      4     21 lj/cut/coul/debye      0.02987572      5.70000000     14.25000000     40
pair_coeff      4     22 lj/cut/coul/debye      0.02987572      5.70000000     14.25000000     ${cut_coul}
pair_coeff      4     22 lj/cut/coul/debye      0.02987572      5.70000000     14.25000000     40
pair_coeff      4     23 lj/cut/coul/debye      0.02987572      5.70000000     14.25000000     ${cut_coul}
pair_coeff      4     23 lj/cut/coul/debye      0.02987572      5.70000000     14.25000000     40
pair_coeff      4     24 lj/cut/coul/debye      0.02987572      5.70000000     14.25000000     ${cut_coul}
pair_coeff      4     24 lj/cut/coul/debye      0.02987572      5.70000000     14.25000000     40
pair_coeff      4     25 lj/cut/coul/debye      0.02987572      5.70000000     14.25000000     ${cut_coul}
pair_coeff      4     25 lj/cut/coul/debye      0.02987572      5.70000000     14.25000000     40
pair_coeff      4     26 lj/cut/coul/debye      0.02987572      5.70000000     14.25000000     ${cut_coul}
pair_coeff      4     26 lj/cut/coul/debye      0.02987572      5.70000000     14.25000000     40
pair_coeff      4     27 lj/cut/coul/debye      0.02987572      5.70000000     14.25000000     ${cut_coul}
pair_coeff      4     27 lj/cut/coul/debye      0.02987572      5.70000000     14.25000000     40
pair_coeff      4     28 lj/cut/coul/debye      0.02987572      5.70000000     14.25000000     ${cut_coul}
pair_coeff      4     28 lj/cut/coul/debye      0.02987572      5.70000000     14.25000000     40
pair_coeff      4     29 lj/cut/coul/debye      0.02987572      5.70000000     14.25000000     ${cut_coul}
pair_coeff      4     29 lj/cut/coul/debye      0.02987572      5.70000000     14.25000000     40
pair_coeff      4     30 lj/cut/coul/debye      0.02987572      5.70000000     14.25000000     ${cut_coul}
pair_coeff      4     30 lj/cut/coul/debye      0.02987572      5.70000000     14.25000000     40
pair_coeff      4     31 lj/cut/coul/debye      0.02987572      5.70000000     14.25000000     ${cut_coul}
pair_coeff      4     31 lj/cut/coul/debye      0.02987572      5.70000000     14.25000000     40
pair_coeff      4     32 lj/cut/coul/debye      0.02987572      5.70000000     14.25000000     ${cut_coul}
pair_coeff      4     32 lj/cut/coul/debye      0.02987572      5.70000000     14.25000000     40
pair_coeff      4     33 lj/cut/coul/debye      0.02987572      5.70000000     14.25000000     ${cut_coul}
pair_coeff      4     33 lj/cut/coul/debye      0.02987572      5.70000000     14.25000000     40
pair_coeff      4     34 lj/cut/coul/debye      0.02987572      5.70000000     14.25000000     ${cut_coul}
pair_coeff      4     34 lj/cut/coul/debye      0.02987572      5.70000000     14.25000000     40
pair_coeff      5     15 lj/cut/coul/debye      0.02987572      5.70000000     14.25000000     ${cut_coul}
pair_coeff      5     15 lj/cut/coul/debye      0.02987572      5.70000000     14.25000000     40
pair_coeff      5     16 lj/cut/coul/debye      0.02987572      5.70000000     14.25000000     ${cut_coul}
pair_coeff      5     16 lj/cut/coul/debye      0.02987572      5.70000000     14.25000000     40
pair_coeff      5     17 lj/cut/coul/debye      0.02987572      5.70000000     14.25000000     ${cut_coul}
pair_coeff      5     17 lj/cut/coul/debye      0.02987572      5.70000000     14.25000000     40
pair_coeff      5     18 lj/cut/coul/debye      0.02987572      5.70000000     14.25000000     ${cut_coul}
pair_coeff      5     18 lj/cut/coul/debye      0.02987572      5.70000000     14.25000000     40
pair_coeff      5     19 lj/cut/coul/debye      0.02987572      5.70000000     14.25000000     ${cut_coul}
pair_coeff      5     19 lj/cut/coul/debye      0.02987572      5.70000000     14.25000000     40
pair_coeff      5     20 lj/cut/coul/debye      0.02987572      5.70000000     14.25000000     ${cut_coul}
pair_coeff      5     20 lj/cut/coul/debye      0.02987572      5.70000000     14.25000000     40
pair_coeff      5     21 lj/cut/coul/debye      0.02987572      5.70000000     14.25000000     ${cut_coul}
pair_coeff      5     21 lj/cut/coul/debye      0.02987572      5.70000000     14.25000000     40
pair_coeff      5     22 lj/cut/coul/debye      0.02987572      5.70000000     14.25000000     ${cut_coul}
pair_coeff      5     22 lj/cut/coul/debye      0.02987572      5.70000000     14.25000000     40
pair_coeff      5     23 lj/cut/coul/debye      0.02987572      5.70000000     14.25000000     ${cut_coul}
pair_coeff      5     23 lj/cut/coul/debye      0.02987572      5.70000000     14.25000000     40
pair_coeff      5     24 lj/cut/coul/debye      0.02987572      5.70000000     14.25000000     ${cut_coul}
pair_coeff      5     24 lj/cut/coul/debye      0.02987572      5.70000000     14.25000000     40
pair_coeff      5     25 lj/cut/coul/debye      0.02987572      5.70000000     14.25000000     ${cut_coul}
pair_coeff      5     25 lj/cut/coul/debye      0.02987572      5.70000000     14.25000000     40
pair_coeff      5     26 lj/cut/coul/debye      0.02987572      5.70000000     14.25000000     ${cut_coul}
pair_coeff      5     26 lj/cut/coul/debye      0.02987572      5.70000000     14.25000000     40
pair_coeff      5     27 lj/cut/coul/debye      0.02987572      5.70000000     14.25000000     ${cut_coul}
pair_coeff      5     27 lj/cut/coul/debye      0.02987572      5.70000000     14.25000000     40
pair_coeff      5     28 lj/cut/coul/debye      0.02987572      5.70000000     14.25000000     ${cut_coul}
pair_coeff      5     28 lj/cut/coul/debye      0.02987572      5.70000000     14.25000000     40
pair_coeff      5     29 lj/cut/coul/debye      0.02987572      5.70000000     14.25000000     ${cut_coul}
pair_coeff      5     29 lj/cut/coul/debye      0.02987572      5.70000000     14.25000000     40
pair_coeff      5     30 lj/cut/coul/debye      0.02987572      5.70000000     14.25000000     ${cut_coul}
pair_coeff      5     30 lj/cut/coul/debye      0.02987572      5.70000000     14.25000000     40
pair_coeff      5     31 lj/cut/coul/debye      0.02987572      5.70000000     14.25000000     ${cut_coul}
pair_coeff      5     31 lj/cut/coul/debye      0.02987572      5.70000000     14.25000000     40
pair_coeff      5     32 lj/cut/coul/debye      0.02987572      5.70000000     14.25000000     ${cut_coul}
pair_coeff      5     32 lj/cut/coul/debye      0.02987572      5.70000000     14.25000000     40
pair_coeff      5     33 lj/cut/coul/debye      0.02987572      5.70000000     14.25000000     ${cut_coul}
pair_coeff      5     33 lj/cut/coul/debye      0.02987572      5.70000000     14.25000000     40
pair_coeff      5     34 lj/cut/coul/debye      0.02987572      5.70000000     14.25000000     ${cut_coul}
pair_coeff      5     34 lj/cut/coul/debye      0.02987572      5.70000000     14.25000000     40
pair_coeff      6     15 lj/cut/coul/debye      0.02987572      5.70000000     14.25000000     ${cut_coul}
pair_coeff      6     15 lj/cut/coul/debye      0.02987572      5.70000000     14.25000000     40
pair_coeff      6     16 lj/cut/coul/debye      0.02987572      5.70000000     14.25000000     ${cut_coul}
pair_coeff      6     16 lj/cut/coul/debye      0.02987572      5.70000000     14.25000000     40
pair_coeff      6     17 lj/cut/coul/debye      0.02987572      5.70000000     14.25000000     ${cut_coul}
pair_coeff      6     17 lj/cut/coul/debye      0.02987572      5.70000000     14.25000000     40
pair_coeff      6     18 lj/cut/coul/debye      0.02987572      5.70000000     14.25000000     ${cut_coul}
pair_coeff      6     18 lj/cut/coul/debye      0.02987572      5.70000000     14.25000000     40
pair_coeff      6     19 lj/cut/coul/debye      0.02987572      5.70000000     14.25000000     ${cut_coul}
pair_coeff      6     19 lj/cut/coul/debye      0.02987572      5.70000000     14.25000000     40
pair_coeff      6     20 lj/cut/coul/debye      0.02987572      5.70000000     14.25000000     ${cut_coul}
pair_coeff      6     20 lj/cut/coul/debye      0.02987572      5.70000000     14.25000000     40
pair_coeff      6     21 lj/cut/coul/debye      0.02987572      5.70000000     14.25000000     ${cut_coul}
pair_coeff      6     21 lj/cut/coul/debye      0.02987572      5.70000000     14.25000000     40
pair_coeff      6     22 lj/cut/coul/debye      0.02987572      5.70000000     14.25000000     ${cut_coul}
pair_coeff      6     22 lj/cut/coul/debye      0.02987572      5.70000000     14.25000000     40
pair_coeff      6     23 lj/cut/coul/debye      0.02987572      5.70000000     14.25000000     ${cut_coul}
pair_coeff      6     23 lj/cut/coul/debye      0.02987572      5.70000000     14.25000000     40
pair_coeff      6     24 lj/cut/coul/debye      0.02987572      5.70000000     14.25000000     ${cut_coul}
pair_coeff      6     24 lj/cut/coul/debye      0.02987572      5.70000000     14.25000000     40
pair_coeff      6     25 lj/cut/coul/debye      0.02987572      5.70000000     14.25000000     ${cut_coul}
pair_coeff      6     25 lj/cut/coul/debye      0.02987572      5.70000000     14.25000000     40
pair_coeff      6     26 lj/cut/coul/debye      0.02987572      5.70000000     14.25000000     ${cut_coul}
pair_coeff      6     26 lj/cut/coul/debye      0.02987572      5.70000000     14.25000000     40
pair_coeff      6     27 lj/cut/coul/debye      0.02987572      5.70000000     14.25000000     ${cut_coul}
pair_coeff      6     27 lj/cut/coul/debye      0.02987572      5.70000000     14.25000000     40
pair_coeff      6     28 lj/cut/coul/debye      0.02987572      5.70000000     14.25000000     ${cut_coul}
pair_coeff      6     28 lj/cut/coul/debye      0.02987572      5.70000000     14.25000000     40
pair_coeff      6     29 lj/cut/coul/debye      0.02987572      5.70000000     14.25000000     ${cut_coul}
pair_coeff      6     29 lj/cut/coul/debye      0.02987572      5.70000000     14.25000000     40
pair_coeff      6     30 lj/cut/coul/debye      0.02987572      5.70000000     14.25000000     ${cut_coul}
pair_coeff      6     30 lj/cut/coul/debye      0.02987572      5.70000000     14.25000000     40
pair_coeff      6     31 lj/cut/coul/debye      0.02987572      5.70000000     14.25000000     ${cut_coul}
pair_coeff      6     31 lj/cut/coul/debye      0.02987572      5.70000000     14.25000000     40
pair_coeff      6     32 lj/cut/coul/debye      0.02987572      5.70000000     14.25000000     ${cut_coul}
pair_coeff      6     32 lj/cut/coul/debye      0.02987572      5.70000000     14.25000000     40
pair_coeff      6     33 lj/cut/coul/debye      0.02987572      5.70000000     14.25000000     ${cut_coul}
pair_coeff      6     33 lj/cut/coul/debye      0.02987572      5.70000000     14.25000000     40
pair_coeff      6     34 lj/cut/coul/debye      0.02987572      5.70000000     14.25000000     ${cut_coul}
pair_coeff      6     34 lj/cut/coul/debye      0.02987572      5.70000000     14.25000000     40
pair_coeff      7     15 lj/cut/coul/debye      0.02987572      5.70000000     14.25000000     ${cut_coul}
pair_coeff      7     15 lj/cut/coul/debye      0.02987572      5.70000000     14.25000000     40
pair_coeff      7     16 lj/cut/coul/debye      0.02987572      5.70000000     14.25000000     ${cut_coul}
pair_coeff      7     16 lj/cut/coul/debye      0.02987572      5.70000000     14.25000000     40
pair_coeff      7     17 lj/cut/coul/debye      0.02987572      5.70000000     14.25000000     ${cut_coul}
pair_coeff      7     17 lj/cut/coul/debye      0.02987572      5.70000000     14.25000000     40
pair_coeff      7     18 lj/cut/coul/debye      0.02987572      5.70000000     14.25000000     ${cut_coul}
pair_coeff      7     18 lj/cut/coul/debye      0.02987572      5.70000000     14.25000000     40
pair_coeff      7     19 lj/cut/coul/debye      0.02987572      5.70000000     14.25000000     ${cut_coul}
pair_coeff      7     19 lj/cut/coul/debye      0.02987572      5.70000000     14.25000000     40
pair_coeff      7     20 lj/cut/coul/debye      0.02987572      5.70000000     14.25000000     ${cut_coul}
pair_coeff      7     20 lj/cut/coul/debye      0.02987572      5.70000000     14.25000000     40
pair_coeff      7     21 lj/cut/coul/debye      0.02987572      5.70000000     14.25000000     ${cut_coul}
pair_coeff      7     21 lj/cut/coul/debye      0.02987572      5.70000000     14.25000000     40
pair_coeff      7     22 lj/cut/coul/debye      0.02987572      5.70000000     14.25000000     ${cut_coul}
pair_coeff      7     22 lj/cut/coul/debye      0.02987572      5.70000000     14.25000000     40
pair_coeff      7     23 lj/cut/coul/debye      0.02987572      5.70000000     14.25000000     ${cut_coul}
pair_coeff      7     23 lj/cut/coul/debye      0.02987572      5.70000000     14.25000000     40
pair_coeff      7     24 lj/cut/coul/debye      0.02987572      5.70000000     14.25000000     ${cut_coul}
pair_coeff      7     24 lj/cut/coul/debye      0.02987572      5.70000000     14.25000000     40
pair_coeff      7     25 lj/cut/coul/debye      0.02987572      5.70000000     14.25000000     ${cut_coul}
pair_coeff      7     25 lj/cut/coul/debye      0.02987572      5.70000000     14.25000000     40
pair_coeff      7     26 lj/cut/coul/debye      0.02987572      5.70000000     14.25000000     ${cut_coul}
pair_coeff      7     26 lj/cut/coul/debye      0.02987572      5.70000000     14.25000000     40
pair_coeff      7     27 lj/cut/coul/debye      0.02987572      5.70000000     14.25000000     ${cut_coul}
pair_coeff      7     27 lj/cut/coul/debye      0.02987572      5.70000000     14.25000000     40
pair_coeff      7     28 lj/cut/coul/debye      0.02987572      5.70000000     14.25000000     ${cut_coul}
pair_coeff      7     28 lj/cut/coul/debye      0.02987572      5.70000000     14.25000000     40
pair_coeff      7     29 lj/cut/coul/debye      0.02987572      5.70000000     14.25000000     ${cut_coul}
pair_coeff      7     29 lj/cut/coul/debye      0.02987572      5.70000000     14.25000000     40
pair_coeff      7     30 lj/cut/coul/debye      0.02987572      5.70000000     14.25000000     ${cut_coul}
pair_coeff      7     30 lj/cut/coul/debye      0.02987572      5.70000000     14.25000000     40
pair_coeff      7     31 lj/cut/coul/debye      0.02987572      5.70000000     14.25000000     ${cut_coul}
pair_coeff      7     31 lj/cut/coul/debye      0.02987572      5.70000000     14.25000000     40
pair_coeff      7     32 lj/cut/coul/debye      0.02987572      5.70000000     14.25000000     ${cut_coul}
pair_coeff      7     32 lj/cut/coul/debye      0.02987572      5.70000000     14.25000000     40
pair_coeff      7     33 lj/cut/coul/debye      0.02987572      5.70000000     14.25000000     ${cut_coul}
pair_coeff      7     33 lj/cut/coul/debye      0.02987572      5.70000000     14.25000000     40
pair_coeff      7     34 lj/cut/coul/debye      0.02987572      5.70000000     14.25000000     ${cut_coul}
pair_coeff      7     34 lj/cut/coul/debye      0.02987572      5.70000000     14.25000000     40
pair_coeff      8     15 lj/cut/coul/debye      0.02987572      5.70000000     14.25000000     ${cut_coul}
pair_coeff      8     15 lj/cut/coul/debye      0.02987572      5.70000000     14.25000000     40
pair_coeff      8     16 lj/cut/coul/debye      0.02987572      5.70000000     14.25000000     ${cut_coul}
pair_coeff      8     16 lj/cut/coul/debye      0.02987572      5.70000000     14.25000000     40
pair_coeff      8     17 lj/cut/coul/debye      0.02987572      5.70000000     14.25000000     ${cut_coul}
pair_coeff      8     17 lj/cut/coul/debye      0.02987572      5.70000000     14.25000000     40
pair_coeff      8     18 lj/cut/coul/debye      0.02987572      5.70000000     14.25000000     ${cut_coul}
pair_coeff      8     18 lj/cut/coul/debye      0.02987572      5.70000000     14.25000000     40
pair_coeff      8     19 lj/cut/coul/debye      0.02987572      5.70000000     14.25000000     ${cut_coul}
pair_coeff      8     19 lj/cut/coul/debye      0.02987572      5.70000000     14.25000000     40
pair_coeff      8     20 lj/cut/coul/debye      0.02987572      5.70000000     14.25000000     ${cut_coul}
pair_coeff      8     20 lj/cut/coul/debye      0.02987572      5.70000000     14.25000000     40
pair_coeff      8     21 lj/cut/coul/debye      0.02987572      5.70000000     14.25000000     ${cut_coul}
pair_coeff      8     21 lj/cut/coul/debye      0.02987572      5.70000000     14.25000000     40
pair_coeff      8     22 lj/cut/coul/debye      0.02987572      5.70000000     14.25000000     ${cut_coul}
pair_coeff      8     22 lj/cut/coul/debye      0.02987572      5.70000000     14.25000000     40
pair_coeff      8     23 lj/cut/coul/debye      0.02987572      5.70000000     14.25000000     ${cut_coul}
pair_coeff      8     23 lj/cut/coul/debye      0.02987572      5.70000000     14.25000000     40
pair_coeff      8     24 lj/cut/coul/debye      0.02987572      5.70000000     14.25000000     ${cut_coul}
pair_coeff      8     24 lj/cut/coul/debye      0.02987572      5.70000000     14.25000000     40
pair_coeff      8     25 lj/cut/coul/debye      0.02987572      5.70000000     14.25000000     ${cut_coul}
pair_coeff      8     25 lj/cut/coul/debye      0.02987572      5.70000000     14.25000000     40
pair_coeff      8     26 lj/cut/coul/debye      0.02987572      5.70000000     14.25000000     ${cut_coul}
pair_coeff      8     26 lj/cut/coul/debye      0.02987572      5.70000000     14.25000000     40
pair_coeff      8     27 lj/cut/coul/debye      0.02987572      5.70000000     14.25000000     ${cut_coul}
pair_coeff      8     27 lj/cut/coul/debye      0.02987572      5.70000000     14.25000000     40
pair_coeff      8     28 lj/cut/coul/debye      0.02987572      5.70000000     14.25000000     ${cut_coul}
pair_coeff      8     28 lj/cut/coul/debye      0.02987572      5.70000000     14.25000000     40
pair_coeff      8     29 lj/cut/coul/debye      0.02987572      5.70000000     14.25000000     ${cut_coul}
pair_coeff      8     29 lj/cut/coul/debye      0.02987572      5.70000000     14.25000000     40
pair_coeff      8     30 lj/cut/coul/debye      0.02987572      5.70000000     14.25000000     ${cut_coul}
pair_coeff      8     30 lj/cut/coul/debye      0.02987572      5.70000000     14.25000000     40
pair_coeff      8     31 lj/cut/coul/debye      0.02987572      5.70000000     14.25000000     ${cut_coul}
pair_coeff      8     31 lj/cut/coul/debye      0.02987572      5.70000000     14.25000000     40
pair_coeff      8     32 lj/cut/coul/debye      0.02987572      5.70000000     14.25000000     ${cut_coul}
pair_coeff      8     32 lj/cut/coul/debye      0.02987572      5.70000000     14.25000000     40
pair_coeff      8     33 lj/cut/coul/debye      0.02987572      5.70000000     14.25000000     ${cut_coul}
pair_coeff      8     33 lj/cut/coul/debye      0.02987572      5.70000000     14.25000000     40
pair_coeff      8     34 lj/cut/coul/debye      0.02987572      5.70000000     14.25000000     ${cut_coul}
pair_coeff      8     34 lj/cut/coul/debye      0.02987572      5.70000000     14.25000000     40
pair_coeff      9     15 lj/cut/coul/debye      0.02987572      5.70000000     14.25000000     ${cut_coul}
pair_coeff      9     15 lj/cut/coul/debye      0.02987572      5.70000000     14.25000000     40
pair_coeff      9     16 lj/cut/coul/debye      0.02987572      5.70000000     14.25000000     ${cut_coul}
pair_coeff      9     16 lj/cut/coul/debye      0.02987572      5.70000000     14.25000000     40
pair_coeff      9     17 lj/cut/coul/debye      0.02987572      5.70000000     14.25000000     ${cut_coul}
pair_coeff      9     17 lj/cut/coul/debye      0.02987572      5.70000000     14.25000000     40
pair_coeff      9     18 lj/cut/coul/debye      0.02987572      5.70000000     14.25000000     ${cut_coul}
pair_coeff      9     18 lj/cut/coul/debye      0.02987572      5.70000000     14.25000000     40
pair_coeff      9     19 lj/cut/coul/debye      0.02987572      5.70000000     14.25000000     ${cut_coul}
pair_coeff      9     19 lj/cut/coul/debye      0.02987572      5.70000000     14.25000000     40
pair_coeff      9     20 lj/cut/coul/debye      0.02987572      5.70000000     14.25000000     ${cut_coul}
pair_coeff      9     20 lj/cut/coul/debye      0.02987572      5.70000000     14.25000000     40
pair_coeff      9     21 lj/cut/coul/debye      0.02987572      5.70000000     14.25000000     ${cut_coul}
pair_coeff      9     21 lj/cut/coul/debye      0.02987572      5.70000000     14.25000000     40
pair_coeff      9     22 lj/cut/coul/debye      0.02987572      5.70000000     14.25000000     ${cut_coul}
pair_coeff      9     22 lj/cut/coul/debye      0.02987572      5.70000000     14.25000000     40
pair_coeff      9     23 lj/cut/coul/debye      0.02987572      5.70000000     14.25000000     ${cut_coul}
pair_coeff      9     23 lj/cut/coul/debye      0.02987572      5.70000000     14.25000000     40
pair_coeff      9     24 lj/cut/coul/debye      0.02987572      5.70000000     14.25000000     ${cut_coul}
pair_coeff      9     24 lj/cut/coul/debye      0.02987572      5.70000000     14.25000000     40
pair_coeff      9     25 lj/cut/coul/debye      0.02987572      5.70000000     14.25000000     ${cut_coul}
pair_coeff      9     25 lj/cut/coul/debye      0.02987572      5.70000000     14.25000000     40
pair_coeff      9     26 lj/cut/coul/debye      0.02987572      5.70000000     14.25000000     ${cut_coul}
pair_coeff      9     26 lj/cut/coul/debye      0.02987572      5.70000000     14.25000000     40
pair_coeff      9     27 lj/cut/coul/debye      0.02987572      5.70000000     14.25000000     ${cut_coul}
pair_coeff      9     27 lj/cut/coul/debye      0.02987572      5.70000000     14.25000000     40
pair_coeff      9     28 lj/cut/coul/debye      0.02987572      5.70000000     14.25000000     ${cut_coul}
pair_coeff      9     28 lj/cut/coul/debye      0.02987572      5.70000000     14.25000000     40
pair_coeff      9     29 lj/cut/coul/debye      0.02987572      5.70000000     14.25000000     ${cut_coul}
pair_coeff      9     29 lj/cut/coul/debye      0.02987572      5.70000000     14.25000000     40
pair_coeff      9     30 lj/cut/coul/debye      0.02987572      5.70000000     14.25000000     ${cut_coul}
pair_coeff      9     30 lj/cut/coul/debye      0.02987572      5.70000000     14.25000000     40
pair_coeff      9     31 lj/cut/coul/debye      0.02987572      5.70000000     14.25000000     ${cut_coul}
pair_coeff      9     31 lj/cut/coul/debye      0.02987572      5.70000000     14.25000000     40
pair_coeff      9     32 lj/cut/coul/debye      0.02987572      5.70000000     14.25000000     ${cut_coul}
pair_coeff      9     32 lj/cut/coul/debye      0.02987572      5.70000000     14.25000000     40
pair_coeff      9     33 lj/cut/coul/debye      0.02987572      5.70000000     14.25000000     ${cut_coul}
pair_coeff      9     33 lj/cut/coul/debye      0.02987572      5.70000000     14.25000000     40
pair_coeff      9     34 lj/cut/coul/debye      0.02987572      5.70000000     14.25000000     ${cut_coul}
pair_coeff      9     34 lj/cut/coul/debye      0.02987572      5.70000000     14.25000000     40
pair_coeff     10     15 lj/cut/coul/debye      0.02987572      5.70000000     14.25000000     ${cut_coul}
pair_coeff     10     15 lj/cut/coul/debye      0.02987572      5.70000000     14.25000000     40
pair_coeff     10     16 lj/cut/coul/debye      0.02987572      5.70000000     14.25000000     ${cut_coul}
pair_coeff     10     16 lj/cut/coul/debye      0.02987572      5.70000000     14.25000000     40
pair_coeff     10     17 lj/cut/coul/debye      0.02987572      5.70000000     14.25000000     ${cut_coul}
pair_coeff     10     17 lj/cut/coul/debye      0.02987572      5.70000000     14.25000000     40
pair_coeff     10     18 lj/cut/coul/debye      0.02987572      5.70000000     14.25000000     ${cut_coul}
pair_coeff     10     18 lj/cut/coul/debye      0.02987572      5.70000000     14.25000000     40
pair_coeff     10     19 lj/cut/coul/debye      0.02987572      5.70000000     14.25000000     ${cut_coul}
pair_coeff     10     19 lj/cut/coul/debye      0.02987572      5.70000000     14.25000000     40
pair_coeff     10     20 lj/cut/coul/debye      0.02987572      5.70000000     14.25000000     ${cut_coul}
pair_coeff     10     20 lj/cut/coul/debye      0.02987572      5.70000000     14.25000000     40
pair_coeff     10     21 lj/cut/coul/debye      0.02987572      5.70000000     14.25000000     ${cut_coul}
pair_coeff     10     21 lj/cut/coul/debye      0.02987572      5.70000000     14.25000000     40
pair_coeff     10     22 lj/cut/coul/debye      0.02987572      5.70000000     14.25000000     ${cut_coul}
pair_coeff     10     22 lj/cut/coul/debye      0.02987572      5.70000000     14.25000000     40
pair_coeff     10     23 lj/cut/coul/debye      0.02987572      5.70000000     14.25000000     ${cut_coul}
pair_coeff     10     23 lj/cut/coul/debye      0.02987572      5.70000000     14.25000000     40
pair_coeff     10     24 lj/cut/coul/debye      0.02987572      5.70000000     14.25000000     ${cut_coul}
pair_coeff     10     24 lj/cut/coul/debye      0.02987572      5.70000000     14.25000000     40
pair_coeff     10     25 lj/cut/coul/debye      0.02987572      5.70000000     14.25000000     ${cut_coul}
pair_coeff     10     25 lj/cut/coul/debye      0.02987572      5.70000000     14.25000000     40
pair_coeff     10     26 lj/cut/coul/debye      0.02987572      5.70000000     14.25000000     ${cut_coul}
pair_coeff     10     26 lj/cut/coul/debye      0.02987572      5.70000000     14.25000000     40
pair_coeff     10     27 lj/cut/coul/debye      0.02987572      5.70000000     14.25000000     ${cut_coul}
pair_coeff     10     27 lj/cut/coul/debye      0.02987572      5.70000000     14.25000000     40
pair_coeff     10     28 lj/cut/coul/debye      0.02987572      5.70000000     14.25000000     ${cut_coul}
pair_coeff     10     28 lj/cut/coul/debye      0.02987572      5.70000000     14.25000000     40
pair_coeff     10     29 lj/cut/coul/debye      0.02987572      5.70000000     14.25000000     ${cut_coul}
pair_coeff     10     29 lj/cut/coul/debye      0.02987572      5.70000000     14.25000000     40
pair_coeff     10     30 lj/cut/coul/debye      0.02987572      5.70000000     14.25000000     ${cut_coul}
pair_coeff     10     30 lj/cut/coul/debye      0.02987572      5.70000000     14.25000000     40
pair_coeff     10     31 lj/cut/coul/debye      0.02987572      5.70000000     14.25000000     ${cut_coul}
pair_coeff     10     31 lj/cut/coul/debye      0.02987572      5.70000000     14.25000000     40
pair_coeff     10     32 lj/cut/coul/debye      0.02987572      5.70000000     14.25000000     ${cut_coul}
pair_coeff     10     32 lj/cut/coul/debye      0.02987572      5.70000000     14.25000000     40
pair_coeff     10     33 lj/cut/coul/debye      0.02987572      5.70000000     14.25000000     ${cut_coul}
pair_coeff     10     33 lj/cut/coul/debye      0.02987572      5.70000000     14.25000000     40
pair_coeff     10     34 lj/cut/coul/debye      0.02987572      5.70000000     14.25000000     ${cut_coul}
pair_coeff     10     34 lj/cut/coul/debye      0.02987572      5.70000000     14.25000000     40
pair_coeff     11     15 lj/cut/coul/debye      0.02987572      5.70000000     14.25000000     ${cut_coul}
pair_coeff     11     15 lj/cut/coul/debye      0.02987572      5.70000000     14.25000000     40
pair_coeff     11     16 lj/cut/coul/debye      0.02987572      5.70000000     14.25000000     ${cut_coul}
pair_coeff     11     16 lj/cut/coul/debye      0.02987572      5.70000000     14.25000000     40
pair_coeff     11     17 lj/cut/coul/debye      0.02987572      5.70000000     14.25000000     ${cut_coul}
pair_coeff     11     17 lj/cut/coul/debye      0.02987572      5.70000000     14.25000000     40
pair_coeff     11     18 lj/cut/coul/debye      0.02987572      5.70000000     14.25000000     ${cut_coul}
pair_coeff     11     18 lj/cut/coul/debye      0.02987572      5.70000000     14.25000000     40
pair_coeff     11     19 lj/cut/coul/debye      0.02987572      5.70000000     14.25000000     ${cut_coul}
pair_coeff     11     19 lj/cut/coul/debye      0.02987572      5.70000000     14.25000000     40
pair_coeff     11     20 lj/cut/coul/debye      0.02987572      5.70000000     14.25000000     ${cut_coul}
pair_coeff     11     20 lj/cut/coul/debye      0.02987572      5.70000000     14.25000000     40
pair_coeff     11     21 lj/cut/coul/debye      0.02987572      5.70000000     14.25000000     ${cut_coul}
pair_coeff     11     21 lj/cut/coul/debye      0.02987572      5.70000000     14.25000000     40
pair_coeff     11     22 lj/cut/coul/debye      0.02987572      5.70000000     14.25000000     ${cut_coul}
pair_coeff     11     22 lj/cut/coul/debye      0.02987572      5.70000000     14.25000000     40
pair_coeff     11     23 lj/cut/coul/debye      0.02987572      5.70000000     14.25000000     ${cut_coul}
pair_coeff     11     23 lj/cut/coul/debye      0.02987572      5.70000000     14.25000000     40
pair_coeff     11     24 lj/cut/coul/debye      0.02987572      5.70000000     14.25000000     ${cut_coul}
pair_coeff     11     24 lj/cut/coul/debye      0.02987572      5.70000000     14.25000000     40
pair_coeff     11     25 lj/cut/coul/debye      0.02987572      5.70000000     14.25000000     ${cut_coul}
pair_coeff     11     25 lj/cut/coul/debye      0.02987572      5.70000000     14.25000000     40
pair_coeff     11     26 lj/cut/coul/debye      0.02987572      5.70000000     14.25000000     ${cut_coul}
pair_coeff     11     26 lj/cut/coul/debye      0.02987572      5.70000000     14.25000000     40
pair_coeff     11     27 lj/cut/coul/debye      0.02987572      5.70000000     14.25000000     ${cut_coul}
pair_coeff     11     27 lj/cut/coul/debye      0.02987572      5.70000000     14.25000000     40
pair_coeff     11     28 lj/cut/coul/debye      0.02987572      5.70000000     14.25000000     ${cut_coul}
pair_coeff     11     28 lj/cut/coul/debye      0.02987572      5.70000000     14.25000000     40
pair_coeff     11     29 lj/cut/coul/debye      0.02987572      5.70000000     14.25000000     ${cut_coul}
pair_coeff     11     29 lj/cut/coul/debye      0.02987572      5.70000000     14.25000000     40
pair_coeff     11     30 lj/cut/coul/debye      0.02987572      5.70000000     14.25000000     ${cut_coul}
pair_coeff     11     30 lj/cut/coul/debye      0.02987572      5.70000000     14.25000000     40
pair_coeff     11     31 lj/cut/coul/debye      0.02987572      5.70000000     14.25000000     ${cut_coul}
pair_coeff     11     31 lj/cut/coul/debye      0.02987572      5.70000000     14.25000000     40
pair_coeff     11     32 lj/cut/coul/debye      0.02987572      5.70000000     14.25000000     ${cut_coul}
pair_coeff     11     32 lj/cut/coul/debye      0.02987572      5.70000000     14.25000000     40
pair_coeff     11     33 lj/cut/coul/debye      0.02987572      5.70000000     14.25000000     ${cut_coul}
pair_coeff     11     33 lj/cut/coul/debye      0.02987572      5.70000000     14.25000000     40
pair_coeff     11     34 lj/cut/coul/debye      0.02987572      5.70000000     14.25000000     ${cut_coul}
pair_coeff     11     34 lj/cut/coul/debye      0.02987572      5.70000000     14.25000000     40
pair_coeff     12     15 lj/cut/coul/debye      0.02987572      5.70000000     14.25000000     ${cut_coul}
pair_coeff     12     15 lj/cut/coul/debye      0.02987572      5.70000000     14.25000000     40
pair_coeff     12     16 lj/cut/coul/debye      0.02987572      5.70000000     14.25000000     ${cut_coul}
pair_coeff     12     16 lj/cut/coul/debye      0.02987572      5.70000000     14.25000000     40
pair_coeff     12     17 lj/cut/coul/debye      0.02987572      5.70000000     14.25000000     ${cut_coul}
pair_coeff     12     17 lj/cut/coul/debye      0.02987572      5.70000000     14.25000000     40
pair_coeff     12     18 lj/cut/coul/debye      0.02987572      5.70000000     14.25000000     ${cut_coul}
pair_coeff     12     18 lj/cut/coul/debye      0.02987572      5.70000000     14.25000000     40
pair_coeff     12     19 lj/cut/coul/debye      0.02987572      5.70000000     14.25000000     ${cut_coul}
pair_coeff     12     19 lj/cut/coul/debye      0.02987572      5.70000000     14.25000000     40
pair_coeff     12     20 lj/cut/coul/debye      0.02987572      5.70000000     14.25000000     ${cut_coul}
pair_coeff     12     20 lj/cut/coul/debye      0.02987572      5.70000000     14.25000000     40
pair_coeff     12     21 lj/cut/coul/debye      0.02987572      5.70000000     14.25000000     ${cut_coul}
pair_coeff     12     21 lj/cut/coul/debye      0.02987572      5.70000000     14.25000000     40
pair_coeff     12     22 lj/cut/coul/debye      0.02987572      5.70000000     14.25000000     ${cut_coul}
pair_coeff     12     22 lj/cut/coul/debye      0.02987572      5.70000000     14.25000000     40
pair_coeff     12     23 lj/cut/coul/debye      0.02987572      5.70000000     14.25000000     ${cut_coul}
pair_coeff     12     23 lj/cut/coul/debye      0.02987572      5.70000000     14.25000000     40
pair_coeff     12     24 lj/cut/coul/debye      0.02987572      5.70000000     14.25000000     ${cut_coul}
pair_coeff     12     24 lj/cut/coul/debye      0.02987572      5.70000000     14.25000000     40
pair_coeff     12     25 lj/cut/coul/debye      0.02987572      5.70000000     14.25000000     ${cut_coul}
pair_coeff     12     25 lj/cut/coul/debye      0.02987572      5.70000000     14.25000000     40
pair_coeff     12     26 lj/cut/coul/debye      0.02987572      5.70000000     14.25000000     ${cut_coul}
pair_coeff     12     26 lj/cut/coul/debye      0.02987572      5.70000000     14.25000000     40
pair_coeff     12     27 lj/cut/coul/debye      0.02987572      5.70000000     14.25000000     ${cut_coul}
pair_coeff     12     27 lj/cut/coul/debye      0.02987572      5.70000000     14.25000000     40
pair_coeff     12     28 lj/cut/coul/debye      0.02987572      5.70000000     14.25000000     ${cut_coul}
pair_coeff     12     28 lj/cut/coul/debye      0.02987572      5.70000000     14.25000000     40
pair_coeff     12     29 lj/cut/coul/debye      0.02987572      5.70000000     14.25000000     ${cut_coul}
pair_coeff     12     29 lj/cut/coul/debye      0.02987572      5.70000000     14.25000000     40
pair_coeff     12     30 lj/cut/coul/debye      0.02987572      5.70000000     14.25000000     ${cut_coul}
pair_coeff     12     30 lj/cut/coul/debye      0.02987572      5.70000000     14.25000000     40
pair_coeff     12     31 lj/cut/coul/debye      0.02987572      5.70000000     14.25000000     ${cut_coul}
pair_coeff     12     31 lj/cut/coul/debye      0.02987572      5.70000000     14.25000000     40
pair_coeff     12     32 lj/cut/coul/debye      0.02987572      5.70000000     14.25000000     ${cut_coul}
pair_coeff     12     32 lj/cut/coul/debye      0.02987572      5.70000000     14.25000000     40
pair_coeff     12     33 lj/cut/coul/debye      0.02987572      5.70000000     14.25000000     ${cut_coul}
pair_coeff     12     33 lj/cut/coul/debye      0.02987572      5.70000000     14.25000000     40
pair_coeff     12     34 lj/cut/coul/debye      0.02987572      5.70000000     14.25000000     ${cut_coul}
pair_coeff     12     34 lj/cut/coul/debye      0.02987572      5.70000000     14.25000000     40
pair_coeff     13     15 lj/cut/coul/debye      0.02987572      5.70000000     14.25000000     ${cut_coul}
pair_coeff     13     15 lj/cut/coul/debye      0.02987572      5.70000000     14.25000000     40
pair_coeff     13     16 lj/cut/coul/debye      0.02987572      5.70000000     14.25000000     ${cut_coul}
pair_coeff     13     16 lj/cut/coul/debye      0.02987572      5.70000000     14.25000000     40
pair_coeff     13     17 lj/cut/coul/debye      0.02987572      5.70000000     14.25000000     ${cut_coul}
pair_coeff     13     17 lj/cut/coul/debye      0.02987572      5.70000000     14.25000000     40
pair_coeff     13     18 lj/cut/coul/debye      0.02987572      5.70000000     14.25000000     ${cut_coul}
pair_coeff     13     18 lj/cut/coul/debye      0.02987572      5.70000000     14.25000000     40
pair_coeff     13     19 lj/cut/coul/debye      0.02987572      5.70000000     14.25000000     ${cut_coul}
pair_coeff     13     19 lj/cut/coul/debye      0.02987572      5.70000000     14.25000000     40
pair_coeff     13     20 lj/cut/coul/debye      0.02987572      5.70000000     14.25000000     ${cut_coul}
pair_coeff     13     20 lj/cut/coul/debye      0.02987572      5.70000000     14.25000000     40
pair_coeff     13     21 lj/cut/coul/debye      0.02987572      5.70000000     14.25000000     ${cut_coul}
pair_coeff     13     21 lj/cut/coul/debye      0.02987572      5.70000000     14.25000000     40
pair_coeff     13     22 lj/cut/coul/debye      0.02987572      5.70000000     14.25000000     ${cut_coul}
pair_coeff     13     22 lj/cut/coul/debye      0.02987572      5.70000000     14.25000000     40
pair_coeff     13     23 lj/cut/coul/debye      0.02987572      5.70000000     14.25000000     ${cut_coul}
pair_coeff     13     23 lj/cut/coul/debye      0.02987572      5.70000000     14.25000000     40
pair_coeff     13     24 lj/cut/coul/debye      0.02987572      5.70000000     14.25000000     ${cut_coul}
pair_coeff     13     24 lj/cut/coul/debye      0.02987572      5.70000000     14.25000000     40
pair_coeff     13     25 lj/cut/coul/debye      0.02987572      5.70000000     14.25000000     ${cut_coul}
pair_coeff     13     25 lj/cut/coul/debye      0.02987572      5.70000000     14.25000000     40
pair_coeff     13     26 lj/cut/coul/debye      0.02987572      5.70000000     14.25000000     ${cut_coul}
pair_coeff     13     26 lj/cut/coul/debye      0.02987572      5.70000000     14.25000000     40
pair_coeff     13     27 lj/cut/coul/debye      0.02987572      5.70000000     14.25000000     ${cut_coul}
pair_coeff     13     27 lj/cut/coul/debye      0.02987572      5.70000000     14.25000000     40
pair_coeff     13     28 lj/cut/coul/debye      0.02987572      5.70000000     14.25000000     ${cut_coul}
pair_coeff     13     28 lj/cut/coul/debye      0.02987572      5.70000000     14.25000000     40
pair_coeff     13     29 lj/cut/coul/debye      0.02987572      5.70000000     14.25000000     ${cut_coul}
pair_coeff     13     29 lj/cut/coul/debye      0.02987572      5.70000000     14.25000000     40
pair_coeff     13     30 lj/cut/coul/debye      0.02987572      5.70000000     14.25000000     ${cut_coul}
pair_coeff     13     30 lj/cut/coul/debye      0.02987572      5.70000000     14.25000000     40
pair_coeff     13     31 lj/cut/coul/debye      0.02987572      5.70000000     14.25000000     ${cut_coul}
pair_coeff     13     31 lj/cut/coul/debye      0.02987572      5.70000000     14.25000000     40
pair_coeff     13     32 lj/cut/coul/debye      0.02987572      5.70000000     14.25000000     ${cut_coul}
pair_coeff     13     32 lj/cut/coul/debye      0.02987572      5.70000000     14.25000000     40
pair_coeff     13     33 lj/cut/coul/debye      0.02987572      5.70000000     14.25000000     ${cut_coul}
pair_coeff     13     33 lj/cut/coul/debye      0.02987572      5.70000000     14.25000000     40
pair_coeff     13     34 lj/cut/coul/debye      0.02987572      5.70000000     14.25000000     ${cut_coul}
pair_coeff     13     34 lj/cut/coul/debye      0.02987572      5.70000000     14.25000000     40
pair_coeff     14     15 lj/cut/coul/debye      0.02987572      5.70000000     14.25000000     ${cut_coul}
pair_coeff     14     15 lj/cut/coul/debye      0.02987572      5.70000000     14.25000000     40
pair_coeff     14     16 lj/cut/coul/debye      0.02987572      5.70000000     14.25000000     ${cut_coul}
pair_coeff     14     16 lj/cut/coul/debye      0.02987572      5.70000000     14.25000000     40
pair_coeff     14     17 lj/cut/coul/debye      0.02987572      5.70000000     14.25000000     ${cut_coul}
pair_coeff     14     17 lj/cut/coul/debye      0.02987572      5.70000000     14.25000000     40
pair_coeff     14     18 lj/cut/coul/debye      0.02987572      5.70000000     14.25000000     ${cut_coul}
pair_coeff     14     18 lj/cut/coul/debye      0.02987572      5.70000000     14.25000000     40
pair_coeff     14     19 lj/cut/coul/debye      0.02987572      5.70000000     14.25000000     ${cut_coul}
pair_coeff     14     19 lj/cut/coul/debye      0.02987572      5.70000000     14.25000000     40
pair_coeff     14     20 lj/cut/coul/debye      0.02987572      5.70000000     14.25000000     ${cut_coul}
pair_coeff     14     20 lj/cut/coul/debye      0.02987572      5.70000000     14.25000000     40
pair_coeff     14     21 lj/cut/coul/debye      0.02987572      5.70000000     14.25000000     ${cut_coul}
pair_coeff     14     21 lj/cut/coul/debye      0.02987572      5.70000000     14.25000000     40
pair_coeff     14     22 lj/cut/coul/debye      0.02987572      5.70000000     14.25000000     ${cut_coul}
pair_coeff     14     22 lj/cut/coul/debye      0.02987572      5.70000000     14.25000000     40
pair_coeff     14     23 lj/cut/coul/debye      0.02987572      5.70000000     14.25000000     ${cut_coul}
pair_coeff     14     23 lj/cut/coul/debye      0.02987572      5.70000000     14.25000000     40
pair_coeff     14     24 lj/cut/coul/debye      0.02987572      5.70000000     14.25000000     ${cut_coul}
pair_coeff     14     24 lj/cut/coul/debye      0.02987572      5.70000000     14.25000000     40
pair_coeff     14     25 lj/cut/coul/debye      0.02987572      5.70000000     14.25000000     ${cut_coul}
pair_coeff     14     25 lj/cut/coul/debye      0.02987572      5.70000000     14.25000000     40
pair_coeff     14     26 lj/cut/coul/debye      0.02987572      5.70000000     14.25000000     ${cut_coul}
pair_coeff     14     26 lj/cut/coul/debye      0.02987572      5.70000000     14.25000000     40
pair_coeff     14     27 lj/cut/coul/debye      0.02987572      5.70000000     14.25000000     ${cut_coul}
pair_coeff     14     27 lj/cut/coul/debye      0.02987572      5.70000000     14.25000000     40
pair_coeff     14     28 lj/cut/coul/debye      0.02987572      5.70000000     14.25000000     ${cut_coul}
pair_coeff     14     28 lj/cut/coul/debye      0.02987572      5.70000000     14.25000000     40
pair_coeff     14     29 lj/cut/coul/debye      0.02987572      5.70000000     14.25000000     ${cut_coul}
pair_coeff     14     29 lj/cut/coul/debye      0.02987572      5.70000000     14.25000000     40
pair_coeff     14     30 lj/cut/coul/debye      0.02987572      5.70000000     14.25000000     ${cut_coul}
pair_coeff     14     30 lj/cut/coul/debye      0.02987572      5.70000000     14.25000000     40
pair_coeff     14     31 lj/cut/coul/debye      0.02987572      5.70000000     14.25000000     ${cut_coul}
pair_coeff     14     31 lj/cut/coul/debye      0.02987572      5.70000000     14.25000000     40
pair_coeff     14     32 lj/cut/coul/debye      0.02987572      5.70000000     14.25000000     ${cut_coul}
pair_coeff     14     32 lj/cut/coul/debye      0.02987572      5.70000000     14.25000000     40
pair_coeff     14     33 lj/cut/coul/debye      0.02987572      5.70000000     14.25000000     ${cut_coul}
pair_coeff     14     33 lj/cut/coul/debye      0.02987572      5.70000000     14.25000000     40
pair_coeff     14     34 lj/cut/coul/debye      0.02987572      5.70000000     14.25000000     ${cut_coul}
pair_coeff     14     34 lj/cut/coul/debye      0.02987572      5.70000000     14.25000000     40
# protein protein pair-wise interaction
pair_coeff     15     15 lj/cut/coul/debye      0.10425138      5.00000000     12.50000000     ${cut_coul}
pair_coeff     15     15 lj/cut/coul/debye      0.10425138      5.00000000     12.50000000     40
pair_coeff     15     16 lj/cut/coul/debye      0.07013971      5.00000000     12.50000000     ${cut_coul}
pair_coeff     15     16 lj/cut/coul/debye      0.07013971      5.00000000     12.50000000     40
pair_coeff     15     17 lj/cut/coul/debye      0.07052299      5.00000000     12.50000000     ${cut_coul}
pair_coeff     15     17 lj/cut/coul/debye      0.07052299      5.00000000     12.50000000     40
pair_coeff     15     18 lj/cut/coul/debye      0.06515711      5.00000000     12.50000000     ${cut_coul}
pair_coeff     15     18 lj/cut/coul/debye      0.06515711      5.00000000     12.50000000     40
pair_coeff     15     19 lj/cut/coul/debye      0.13682993      5.00000000     12.50000000     ${cut_coul}
pair_coeff     15     19 lj/cut/coul/debye      0.13682993      5.00000000     12.50000000     40
pair_coeff     15     20 lj/cut/coul/debye      0.05787485      5.00000000     12.50000000     ${cut_coul}
pair_coeff     15     20 lj/cut/coul/debye      0.05787485      5.00000000     12.50000000     40
pair_coeff     15     21 lj/cut/coul/debye      0.07243938      5.00000000     12.50000000     ${cut_coul}
pair_coeff     15     21 lj/cut/coul/debye      0.07243938      5.00000000     12.50000000     40
pair_coeff     15     22 lj/cut/coul/debye      0.08853702      5.00000000     12.50000000     ${cut_coul}
pair_coeff     15     22 lj/cut/coul/debye      0.08853702      5.00000000     12.50000000     40
pair_coeff     15     23 lj/cut/coul/debye      0.09236979      5.00000000     12.50000000     ${cut_coul}
pair_coeff     15     23 lj/cut/coul/debye      0.09236979      5.00000000     12.50000000     40
pair_coeff     15     24 lj/cut/coul/debye      0.17554092      5.00000000     12.50000000     ${cut_coul}
pair_coeff     15     24 lj/cut/coul/debye      0.17554092      5.00000000     12.50000000     40
pair_coeff     15     25 lj/cut/coul/debye      0.18818907      5.00000000     12.50000000     ${cut_coul}
pair_coeff     15     25 lj/cut/coul/debye      0.18818907      5.00000000     12.50000000     40
pair_coeff     15     26 lj/cut/coul/debye      0.05020930      5.00000000     12.50000000     ${cut_coul}
pair_coeff     15     26 lj/cut/coul/debye      0.05020930      5.00000000     12.50000000     40
pair_coeff     15     27 lj/cut/coul/debye      0.15101119      5.00000000     12.50000000     ${cut_coul}
pair_coeff     15     27 lj/cut/coul/debye      0.15101119      5.00000000     12.50000000     40
pair_coeff     15     28 lj/cut/coul/debye      0.18435630      5.00000000     12.50000000     ${cut_coul}
pair_coeff     15     28 lj/cut/coul/debye      0.18435630      5.00000000     12.50000000     40
pair_coeff     15     29 lj/cut/coul/debye      0.07780526      5.00000000     12.50000000     ${cut_coul}
pair_coeff     15     29 lj/cut/coul/debye      0.07780526      5.00000000     12.50000000     40
pair_coeff     15     30 lj/cut/coul/debye      0.07703870      5.00000000     12.50000000     ${cut_coul}
pair_coeff     15     30 lj/cut/coul/debye      0.07703870      5.00000000     12.50000000     40
pair_coeff     15     31 lj/cut/coul/debye      0.08892029      5.00000000     12.50000000     ${cut_coul}
pair_coeff     15     31 lj/cut/coul/debye      0.08892029      5.00000000     12.50000000     40
pair_coeff     15     32 lj/cut/coul/debye      0.14641186      5.00000000     12.50000000     ${cut_coul}
pair_coeff     15     32 lj/cut/coul/debye      0.14641186      5.00000000     12.50000000     40
pair_coeff     15     33 lj/cut/coul/debye      0.12878111      5.00000000     12.50000000     ${cut_coul}
pair_coeff     15     33 lj/cut/coul/debye      0.12878111      5.00000000     12.50000000     40
pair_coeff     15     34 lj/cut/coul/debye      0.15484396      5.00000000     12.50000000     ${cut_coul}
pair_coeff     15     34 lj/cut/coul/debye      0.15484396      5.00000000     12.50000000     40
pair_coeff     16     16 lj/cut/coul/debye      0.05940795      5.00000000     12.50000000     ${cut_coul}
pair_coeff     16     16 lj/cut/coul/debye      0.05940795      5.00000000     12.50000000     40
pair_coeff     16     17 lj/cut/coul/debye      0.06285745      5.00000000     12.50000000     ${cut_coul}
pair_coeff     16     17 lj/cut/coul/debye      0.06285745      5.00000000     12.50000000     40
pair_coeff     16     18 lj/cut/coul/debye      0.08777046      5.00000000     12.50000000     ${cut_coul}
pair_coeff     16     18 lj/cut/coul/debye      0.08777046      5.00000000     12.50000000     40
pair_coeff     16     19 lj/cut/coul/debye      0.09850222      5.00000000     12.50000000     ${cut_coul}
pair_coeff     16     19 lj/cut/coul/debye      0.09850222      5.00000000     12.50000000     40
pair_coeff     16     20 lj/cut/coul/debye      0.08700391      5.00000000     12.50000000     ${cut_coul}
pair_coeff     16     20 lj/cut/coul/debye      0.08700391      5.00000000     12.50000000     40
pair_coeff     16     21 lj/cut/coul/debye      0.06898988      5.00000000     12.50000000     ${cut_coul}
pair_coeff     16     21 lj/cut/coul/debye      0.06898988      5.00000000     12.50000000     40
pair_coeff     16     22 lj/cut/coul/debye      0.06592367      5.00000000     12.50000000     ${cut_coul}
pair_coeff     16     22 lj/cut/coul/debye      0.06592367      5.00000000     12.50000000     40
pair_coeff     16     23 lj/cut/coul/debye      0.08278786      5.00000000     12.50000000     ${cut_coul}
pair_coeff     16     23 lj/cut/coul/debye      0.08278786      5.00000000     12.50000000     40
pair_coeff     16     24 lj/cut/coul/debye      0.13912960      5.00000000     12.50000000     ${cut_coul}
pair_coeff     16     24 lj/cut/coul/debye      0.13912960      5.00000000     12.50000000     40
pair_coeff     16     25 lj/cut/coul/debye      0.15446068      5.00000000     12.50000000     ${cut_coul}
pair_coeff     16     25 lj/cut/coul/debye      0.15446068      5.00000000     12.50000000     40
pair_coeff     16     26 lj/cut/coul/debye      0.02261335      5.00000000     12.50000000     ${cut_coul}
pair_coeff     16     26 lj/cut/coul/debye      0.02261335      5.00000000     12.50000000     40
pair_coeff     16     27 lj/cut/coul/debye      0.11958246      5.00000000     12.50000000     ${cut_coul}
pair_coeff     16     27 lj/cut/coul/debye      0.11958246      5.00000000     12.50000000     40
pair_coeff     16     28 lj/cut/coul/debye      0.15254430      5.00000000     12.50000000     ${cut_coul}
pair_coeff     16     28 lj/cut/coul/debye      0.15254430      5.00000000     12.50000000     40
pair_coeff     16     29 lj/cut/coul/debye      0.06515711      5.00000000     12.50000000     ${cut_coul}
pair_coeff     16     29 lj/cut/coul/debye      0.06515711      5.00000000     12.50000000     40
pair_coeff     16     30 lj/cut/coul/debye      0.06209089      5.00000000     12.50000000     ${cut_coul}
pair_coeff     16     30 lj/cut/coul/debye      0.06209089      5.00000000     12.50000000     40
pair_coeff     16     31 lj/cut/coul/debye      0.07282265      5.00000000     12.50000000     ${cut_coul}
pair_coeff     16     31 lj/cut/coul/debye      0.07282265      5.00000000     12.50000000     40
pair_coeff     16     32 lj/cut/coul/debye      0.13069750      5.00000000     12.50000000     ${cut_coul}
pair_coeff     16     32 lj/cut/coul/debye      0.13069750      5.00000000     12.50000000     40
pair_coeff     16     33 lj/cut/coul/debye      0.12111557      5.00000000     12.50000000     ${cut_coul}
pair_coeff     16     33 lj/cut/coul/debye      0.12111557      5.00000000     12.50000000     40
pair_coeff     16     34 lj/cut/coul/debye      0.11766608      5.00000000     12.50000000     ${cut_coul}
pair_coeff     16     34 lj/cut/coul/debye      0.11766608      5.00000000     12.50000000     40
pair_coeff     17     17 lj/cut/coul/debye      0.06439056      5.00000000     12.50000000     ${cut_coul}
pair_coeff     17     17 lj/cut/coul/debye      0.06439056      5.00000000     12.50000000     40
pair_coeff     17     18 lj/cut/coul/debye      0.06439056      5.00000000     12.50000000     ${cut_coul}
pair_coeff     17     18 lj/cut/coul/debye      0.06439056      5.00000000     12.50000000     40
pair_coeff     17     19 lj/cut/coul/debye      0.09926878      5.00000000     12.50000000     ${cut_coul}
pair_coeff     17     19 lj/cut/coul/debye      0.09926878      5.00000000     12.50000000     40
pair_coeff     17     20 lj/cut/coul/debye      0.05787485      5.00000000     12.50000000     ${cut_coul}
pair_coeff     17     20 lj/cut/coul/debye      0.05787485      5.00000000     12.50000000     40
pair_coeff     17     21 lj/cut/coul/debye      0.06554039      5.00000000     12.50000000     ${cut_coul}
pair_coeff     17     21 lj/cut/coul/debye      0.06554039      5.00000000     12.50000000     40
pair_coeff     17     22 lj/cut/coul/debye      0.06669022      5.00000000     12.50000000     ${cut_coul}
pair_coeff     17     22 lj/cut/coul/debye      0.06669022      5.00000000     12.50000000     40
pair_coeff     17     23 lj/cut/coul/debye      0.07972164      5.00000000     12.50000000     ${cut_coul}
pair_coeff     17     23 lj/cut/coul/debye      0.07972164      5.00000000     12.50000000     40
[...]
pair_coeff     24     32 lj/cut/coul/debye      0.22153418      5.00000000     12.50000000     40
pair_coeff     24     33 lj/cut/coul/debye      0.20122049      5.00000000     12.50000000     ${cut_coul}
pair_coeff     24     33 lj/cut/coul/debye      0.20122049      5.00000000     12.50000000     40
pair_coeff     24     34 lj/cut/coul/debye      0.23188266      5.00000000     12.50000000     ${cut_coul}
pair_coeff     24     34 lj/cut/coul/debye      0.23188266      5.00000000     12.50000000     40
pair_coeff     25     25 lj/cut/coul/debye      0.28247524      5.00000000     12.50000000     ${cut_coul}
pair_coeff     25     25 lj/cut/coul/debye      0.28247524      5.00000000     12.50000000     40
pair_coeff     25     26 lj/cut/coul/debye      0.12916439      5.00000000     12.50000000     ${cut_coul}
pair_coeff     25     26 lj/cut/coul/debye      0.12916439      5.00000000     12.50000000     40
pair_coeff     25     27 lj/cut/coul/debye      0.24568064      5.00000000     12.50000000     ${cut_coul}
pair_coeff     25     27 lj/cut/coul/debye      0.24568064      5.00000000     12.50000000     40
pair_coeff     25     28 lj/cut/coul/debye      0.27902575      5.00000000     12.50000000     ${cut_coul}
pair_coeff     25     28 lj/cut/coul/debye      0.27902575      5.00000000     12.50000000     40
pair_coeff     25     29 lj/cut/coul/debye      0.16097639      5.00000000     12.50000000     ${cut_coul}
pair_coeff     25     29 lj/cut/coul/debye      0.16097639      5.00000000     12.50000000     40
pair_coeff     25     30 lj/cut/coul/debye      0.15024463      5.00000000     12.50000000     ${cut_coul}
pair_coeff     25     30 lj/cut/coul/debye      0.15024463      5.00000000     12.50000000     40
pair_coeff     25     31 lj/cut/coul/debye      0.16634227      5.00000000     12.50000000     ${cut_coul}
pair_coeff     25     31 lj/cut/coul/debye      0.16634227      5.00000000     12.50000000     40
pair_coeff     25     32 lj/cut/coul/debye      0.23533216      5.00000000     12.50000000     ${cut_coul}
pair_coeff     25     32 lj/cut/coul/debye      0.23533216      5.00000000     12.50000000     40
pair_coeff     25     33 lj/cut/coul/debye      0.21731813      5.00000000     12.50000000     ${cut_coul}
pair_coeff     25     33 lj/cut/coul/debye      0.21731813      5.00000000     12.50000000     40
pair_coeff     25     34 lj/cut/coul/debye      0.24836358      5.00000000     12.50000000     ${cut_coul}
pair_coeff     25     34 lj/cut/coul/debye      0.24836358      5.00000000     12.50000000     40
pair_coeff     26     26 lj/cut/coul/debye      0.00459933      5.00000000     12.50000000     ${cut_coul}
pair_coeff     26     26 lj/cut/coul/debye      0.00459933      5.00000000     12.50000000     40
pair_coeff     26     27 lj/cut/coul/debye      0.09505273      5.00000000     12.50000000     ${cut_coul}
pair_coeff     26     27 lj/cut/coul/debye      0.09505273      5.00000000     12.50000000     40
pair_coeff     26     28 lj/cut/coul/debye      0.12878111      5.00000000     12.50000000     ${cut_coul}
pair_coeff     26     28 lj/cut/coul/debye      0.12878111      5.00000000     12.50000000     40
pair_coeff     26     29 lj/cut/coul/debye      0.03717788      5.00000000     12.50000000     ${cut_coul}
pair_coeff     26     29 lj/cut/coul/debye      0.03717788      5.00000000     12.50000000     40
pair_coeff     26     30 lj/cut/coul/debye      0.04024410      5.00000000     12.50000000     ${cut_coul}
pair_coeff     26     30 lj/cut/coul/debye      0.04024410      5.00000000     12.50000000     40
pair_coeff     26     31 lj/cut/coul/debye      0.05020930      5.00000000     12.50000000     ${cut_coul}
pair_coeff     26     31 lj/cut/coul/debye      0.05020930      5.00000000     12.50000000     40
pair_coeff     26     32 lj/cut/coul/debye      0.10310155      5.00000000     12.50000000     ${cut_coul}
pair_coeff     26     32 lj/cut/coul/debye      0.10310155      5.00000000     12.50000000     40
pair_coeff     26     33 lj/cut/coul/debye      0.09965205      5.00000000     12.50000000     ${cut_coul}
pair_coeff     26     33 lj/cut/coul/debye      0.09965205      5.00000000     12.50000000     40
pair_coeff     26     34 lj/cut/coul/debye      0.09543600      5.00000000     12.50000000     ${cut_coul}
pair_coeff     26     34 lj/cut/coul/debye      0.09543600      5.00000000     12.50000000     40
pair_coeff     27     27 lj/cut/coul/debye      0.20926931      5.00000000     12.50000000     ${cut_coul}
pair_coeff     27     27 lj/cut/coul/debye      0.20926931      5.00000000     12.50000000     40
pair_coeff     27     28 lj/cut/coul/debye      0.25142980      5.00000000     12.50000000     ${cut_coul}
pair_coeff     27     28 lj/cut/coul/debye      0.25142980      5.00000000     12.50000000     40
pair_coeff     27     29 lj/cut/coul/debye      0.13223061      5.00000000     12.50000000     ${cut_coul}
pair_coeff     27     29 lj/cut/coul/debye      0.13223061      5.00000000     12.50000000     40
pair_coeff     27     30 lj/cut/coul/debye      0.11613297      5.00000000     12.50000000     ${cut_coul}
pair_coeff     27     30 lj/cut/coul/debye      0.11613297      5.00000000     12.50000000     40
pair_coeff     27     31 lj/cut/coul/debye      0.13453027      5.00000000     12.50000000     ${cut_coul}
pair_coeff     27     31 lj/cut/coul/debye      0.13453027      5.00000000     12.50000000     40
pair_coeff     27     32 lj/cut/coul/debye      0.21271881      5.00000000     12.50000000     ${cut_coul}
pair_coeff     27     32 lj/cut/coul/debye      0.21271881      5.00000000     12.50000000     40
pair_coeff     27     33 lj/cut/coul/debye      0.18818907      5.00000000     12.50000000     ${cut_coul}
pair_coeff     27     33 lj/cut/coul/debye      0.18818907      5.00000000     12.50000000     40
pair_coeff     27     34 lj/cut/coul/debye      0.20390343      5.00000000     12.50000000     ${cut_coul}
pair_coeff     27     34 lj/cut/coul/debye      0.20390343      5.00000000     12.50000000     40
pair_coeff     28     28 lj/cut/coul/debye      0.27825919      5.00000000     12.50000000     ${cut_coul}
pair_coeff     28     28 lj/cut/coul/debye      0.27825919      5.00000000     12.50000000     40
pair_coeff     28     29 lj/cut/coul/debye      0.16289278      5.00000000     12.50000000     ${cut_coul}
pair_coeff     28     29 lj/cut/coul/debye      0.16289278      5.00000000     12.50000000     40
pair_coeff     28     30 lj/cut/coul/debye      0.15407741      5.00000000     12.50000000     ${cut_coul}
pair_coeff     28     30 lj/cut/coul/debye      0.15407741      5.00000000     12.50000000     40
pair_coeff     28     31 lj/cut/coul/debye      0.16404261      5.00000000     12.50000000     ${cut_coul}
pair_coeff     28     31 lj/cut/coul/debye      0.16404261      5.00000000     12.50000000     40
pair_coeff     28     32 lj/cut/coul/debye      0.23609871      5.00000000     12.50000000     ${cut_coul}
pair_coeff     28     32 lj/cut/coul/debye      0.23609871      5.00000000     12.50000000     40
pair_coeff     28     33 lj/cut/coul/debye      0.21693485      5.00000000     12.50000000     ${cut_coul}
pair_coeff     28     33 lj/cut/coul/debye      0.21693485      5.00000000     12.50000000     40
pair_coeff     28     34 lj/cut/coul/debye      0.24108131      5.00000000     12.50000000     ${cut_coul}
pair_coeff     28     34 lj/cut/coul/debye      0.24108131      5.00000000     12.50000000     40
pair_coeff     29     29 lj/cut/coul/debye      0.06707350      5.00000000     12.50000000     ${cut_coul}
pair_coeff     29     29 lj/cut/coul/debye      0.06707350      5.00000000     12.50000000     40
pair_coeff     29     30 lj/cut/coul/debye      0.06017451      5.00000000     12.50000000     ${cut_coul}
pair_coeff     29     30 lj/cut/coul/debye      0.06017451      5.00000000     12.50000000     40
pair_coeff     29     31 lj/cut/coul/debye      0.07282265      5.00000000     12.50000000     ${cut_coul}
pair_coeff     29     31 lj/cut/coul/debye      0.07282265      5.00000000     12.50000000     40
pair_coeff     29     32 lj/cut/coul/debye      0.14296237      5.00000000     12.50000000     ${cut_coul}
pair_coeff     29     32 lj/cut/coul/debye      0.14296237      5.00000000     12.50000000     40
pair_coeff     29     33 lj/cut/coul/debye      0.12226540      5.00000000     12.50000000     ${cut_coul}
pair_coeff     29     33 lj/cut/coul/debye      0.12226540      5.00000000     12.50000000     40
pair_coeff     29     34 lj/cut/coul/debye      0.12724801      5.00000000     12.50000000     ${cut_coul}
pair_coeff     29     34 lj/cut/coul/debye      0.12724801      5.00000000     12.50000000     40
pair_coeff     30     30 lj/cut/coul/debye      0.06400728      5.00000000     12.50000000     ${cut_coul}
pair_coeff     30     30 lj/cut/coul/debye      0.06400728      5.00000000     12.50000000     40
pair_coeff     30     31 lj/cut/coul/debye      0.07512232      5.00000000     12.50000000     ${cut_coul}
pair_coeff     30     31 lj/cut/coul/debye      0.07512232      5.00000000     12.50000000     40
pair_coeff     30     32 lj/cut/coul/debye      0.11459986      5.00000000     12.50000000     ${cut_coul}
pair_coeff     30     32 lj/cut/coul/debye      0.11459986      5.00000000     12.50000000     40
pair_coeff     30     33 lj/cut/coul/debye      0.10655104      5.00000000     12.50000000     ${cut_coul}
pair_coeff     30     33 lj/cut/coul/debye      0.10655104      5.00000000     12.50000000     40
pair_coeff     30     34 lj/cut/coul/debye      0.11689952      5.00000000     12.50000000     ${cut_coul}
pair_coeff     30     34 lj/cut/coul/debye      0.11689952      5.00000000     12.50000000     40
pair_coeff     31     31 lj/cut/coul/debye      0.08125475      5.00000000     12.50000000     ${cut_coul}
pair_coeff     31     31 lj/cut/coul/debye      0.08125475      5.00000000     12.50000000     40
pair_coeff     31     32 lj/cut/coul/debye      0.12341523      5.00000000     12.50000000     ${cut_coul}
pair_coeff     31     32 lj/cut/coul/debye      0.12341523      5.00000000     12.50000000     40
pair_coeff     31     33 lj/cut/coul/debye      0.11536642      5.00000000     12.50000000     ${cut_coul}
pair_coeff     31     33 lj/cut/coul/debye      0.11536642      5.00000000     12.50000000     40
pair_coeff     31     34 lj/cut/coul/debye      0.13261389      5.00000000     12.50000000     ${cut_coul}
pair_coeff     31     34 lj/cut/coul/debye      0.13261389      5.00000000     12.50000000     40
pair_coeff     32     32 lj/cut/coul/debye      0.19393823      5.00000000     12.50000000     ${cut_coul}
pair_coeff     32     32 lj/cut/coul/debye      0.19393823      5.00000000     12.50000000     40
pair_coeff     32     33 lj/cut/coul/debye      0.17860714      5.00000000     12.50000000     ${cut_coul}
pair_coeff     32     33 lj/cut/coul/debye      0.17860714      5.00000000     12.50000000     40
pair_coeff     32     34 lj/cut/coul/debye      0.19853755      5.00000000     12.50000000     ${cut_coul}
pair_coeff     32     34 lj/cut/coul/debye      0.19853755      5.00000000     12.50000000     40
pair_coeff     33     33 lj/cut/coul/debye      0.15982656      5.00000000     12.50000000     ${cut_coul}
pair_coeff     33     33 lj/cut/coul/debye      0.15982656      5.00000000     12.50000000     40
pair_coeff     33     34 lj/cut/coul/debye      0.17707403      5.00000000     12.50000000     ${cut_coul}
pair_coeff     33     34 lj/cut/coul/debye      0.17707403      5.00000000     12.50000000     40
pair_coeff     34     34 lj/cut/coul/debye      0.21156897      5.00000000     12.50000000     ${cut_coul}
pair_coeff     34     34 lj/cut/coul/debye      0.21156897      5.00000000     12.50000000     40


# define groups
group protein id 1:63
63 atoms in group protein
group dna id 64:157
94 atoms in group dna
group sp id 64:110:3 65:110:3 111:157:3 112:157:3 # group for all the DNA sugar and base CG atoms
64 atoms in group sp
#group protein id 1 2 3 4 5 6 7 8 9 10 11 12 13 14 15 16 17 18 19 20 21 22 23 24 25 26 27 28 29 30 31 32 33 34 35 36 37 38 39 40 41 42 43 44 45 46 47 48 49 50 51 52 53 54 55 56 57 58 59 60 61 62 63
#group dna id 64 65 66 67 68 69 70 71 72 73 74 75 76 77 78 79 80 81 82 83 84 85 86 87 88 89 90 91 92 93 94 95 96 97 98 99 100 101 102 103 104 105 106 107 108 109 110 111 112 113 114 115 116 117 118 119 120 121 122 123 124 125 126 127 128 129 130 131 132 133 134 135 136 137 138 139 140 141 142 143 144 145 146 147 148 149 150 151 152 153 154 155 156 157

## shift the cutoff energy
pair_modify         shift yes

include           ${inputdir}/forcefield/bonded_ff.txt
include           /nobackup1c/users/smliu/smog-3spn2c-openmm/lammps-1nk3/setup/post_processing/forcefield/bonded_ff.txt
bond_coeff          1       list
bond_coeff          2       list/ca


angle_coeff     1	list
angle_coeff 	2	stacking/3spn2	3.303059	3.580000	100.130000	3.000000	6.000000
angle_coeff 	3	stacking/3spn2	3.597036	3.560000	90.480000	3.000000	6.000000
angle_coeff 	4	stacking/3spn2	3.183556	3.850000	104.390000	3.000000	6.000000
angle_coeff 	5	stacking/3spn2	3.781071	3.450000	93.230000	3.000000	6.000000
angle_coeff 	6	stacking/3spn2	2.186902	4.150000	102.590000	3.000000	6.000000
angle_coeff 	7	stacking/3spn2	2.973231	3.930000	93.320000	3.000000	6.000000
angle_coeff 	8	stacking/3spn2	2.289675	4.320000	103.700000	3.000000	6.000000
angle_coeff 	9	stacking/3spn2	3.133365	3.870000	94.550000	3.000000	6.000000
angle_coeff 	10	stacking/3spn2	3.288719	3.510000	95.450000	3.000000	6.000000
angle_coeff 	11	stacking/3spn2	3.487094	3.470000	87.630000	3.000000	6.000000
angle_coeff 	12	stacking/3spn2	3.530115	3.670000	106.360000	3.000000	6.000000
angle_coeff 	13	stacking/3spn2	3.625717	3.420000	83.120000	3.000000	6.000000
angle_coeff 	14	stacking/3spn2	2.210803	4.150000	102.690000	3.000000	6.000000
angle_coeff 	15	stacking/3spn2	2.968451	3.990000	96.050000	3.000000	6.000000
angle_coeff 	16	stacking/3spn2	2.110421	4.340000	100.460000	3.000000	6.000000
angle_coeff 	17	stacking/3spn2	3.348470	3.840000	100.680000	3.000000	6.000000
angle_coeff     18      list/ca


dihedral_coeff	    1	list
dihedral_coeff	    2	list/ca

#   ---         group definitions       --- #
#include             ${inputdir}/groupsDefinition/group_rigid.txt
#group nonRigidBody subtract all prc2
#group2ndx           groups.ndx

# ---     from AWSEM simulation   ---
neighbor            5      bin
#neigh_modify exclude group prc2 prc2 check no
neigh_modify        check  yes     one 5000    # this avoids the error "boost neigh_modify one"

atom_modify         sort 0 0.0
#special_bonds       fene
special_bonds       lj 0.0 0.0 0.0
#delete_bonds prc2 multi remove

# compute different components of DNA non-bonded energy
# code from LAMMPS-3SPN2/GCGI/example/DNA_with_GCGI_ions.in
compute edna all pair 3spn2
variable ebp equal c_edna[1] # Base pairing energy
variable ecstk equal c_edna[2] # Cross stacking energy
variable eexcl equal c_edna[3] # Excluded volume energy
variable dna_ecoul equal c_edna[4] # DNA coulombic energy
variable nbp equal c_edna[5] # Number of base pairs

#compute e_dna_angles dna angle/local eng
#compute sum_e_dna_angles dna reduce sum c_e_dna_angles[*]
#compute e_protein_angles protein angle/local eng
#compute sum_e_protein_angles protein reduce sum c_e_protein_angles[*]
#compute e_angles all angle/local eng
#compute sum_e_angles all reduce sum c_e_angles[*]
#compute e_bstk sp angle/local eng
#compute sum_e_bstk sp reduce sum c_e_bstk[*]
compute e_bonds all bond
compute e_angles all angle
compute e_dihedrals all dihedral
compute e_sbm_pair all pair list
compute e_lj_debye all pair lj/cut/coul/debye
compute e_lj_debye_vdwl all pair lj/cut/coul/debye evdwl
compute e_lj_debye_coul all pair lj/cut/coul/debye ecoul

compute angle_atoms all property/local aatom1 aatom2 aatom3 atype
compute angle_data all angle/local eng theta
compute protein_angle_atoms protein property/local aatom1 aatom2 aatom3 atype
compute protein_angle_data protein angle/local eng theta
compute dna_angle_atoms dna property/local aatom1 aatom2 aatom3 atype
compute dna_angle_data dna angle/local eng theta

#####################################################
# A timestep of 2.0 fs
timestep            2.0
thermo              1
#thermo_style        multi
thermo_style        custom step pe v_ebp v_ecstk v_eexcl v_dna_ecoul v_nbp c_e_bonds[*] c_e_angles[*] c_e_dihedrals[*] c_e_sbm_pair c_e_lj_debye c_e_lj_debye_vdwl c_e_lj_debye_coul
thermo_modify flush yes

#dump                1 all dcd 1 DUMP_FILE_job${JOBIDX}.dcd
dump                1 all dcd 1 DUMP_FILE.dcd
dump_modify         1 sort id
dump                dump_angles all local 1 angles.dump index c_angle_atoms[*] c_angle_data[*]
#dump                dump_protein_angles protein local 1 protein_angles.dump index c_protein_angle_atoms[*] c_protein_angle_data[*]
#dump                dump_dna_angles dna local 1 dna_angles.dump index c_dna_angle_atoms[*] c_dna_angle_data[*]

restart             50000 state.1.cpt state.2.cpt
#restart             50000 state_job${JOBIDX}.1.cpt state_job${JOBIDX}.2.cpt

velocity            all create ${T} ${random} rot yes mom yes dist gaussian
velocity            all create 300 ${random} rot yes mom yes dist gaussian
velocity            all create 300 12345 rot yes mom yes dist gaussian

# Fix from plumed
#fix     pl all plumed plumedfile plumed.dat outfile plumed.out
#fix                 3 all colvars input.colvars output out_job${JOBIDX}
#fix_modify          3 energy yes

#####################################################
#   ---         Parallel Tempering      ---     #
#minimize        1.0e-4 1.0e-6 100 1000
reset_timestep 0

#fix myfix   all nve
fix myfix   all nvt temp ${T} ${T} 200.0
fix myfix   all nvt temp 300 ${T} 200.0
fix myfix   all nvt temp 300 300 200.0
#fix             rigidBody core rigid/nvt group 1 prc2 temp ${T} ${T} 1000.0
#fix             1   nonRigidBody nve
#fix             myfix nonRigidBody langevin ${T} ${T} 1000.0 ${rseed}
#fix             rigidBody core rigid group 1 prc2 langevin ${T} ${T} 1000.0 428984

run 0
Neighbor list info ...
  3 neighbor list requests
  update every 1 steps, delay 10 steps, check yes
  max neighbors/atom: 5000, page size: 100000
  master list distance cutoff = 55
  ghost atom cutoff = 55
  binsize = 27.5 -> bins = 73 73 73
Memory usage per processor = 4.70524 Mbytes
Step PotEng v_ebp v_ecstk v_eexcl v_dna_ecoul v_nbp c_e_bonds[1] c_e_bonds[2] c_e_angles[1] c_e_angles[2] c_e_angles[3] c_e_dihedrals[1] c_e_dihedrals[2] c_e_sbm_pair c_e_lj_debye c_e_lj_debye_vdwl c_e_lj_debye_coul 
       0    22690.738    711.31937   -2.9421507   0.72172951    3.0591612            0    1711.4662    3028.3864    16166.186    1102.9035    79.443148   -48.120854    11.625268    -57.22518   -16.084646   -4.8030396   -11.281607 
Loop time of 9.53674e-07 on 1 procs for 0 steps with 157 atoms

209.7% CPU use with 1 MPI tasks x no OpenMP threads

MPI task timing breakdown:
Section |  min time  |  avg time  |  max time  |%varavg| %total
---------------------------------------------------------------
Pair    | 0          | 0          | 0          |   0.0 |  0.00
Bond    | 0          | 0          | 0          |   0.0 |  0.00
Neigh   | 0          | 0          | 0          |   0.0 |  0.00
Comm    | 0          | 0          | 0          |   0.0 |  0.00
Output  | 0          | 0          | 0          |   0.0 |  0.00
Modify  | 0          | 0          | 0          |   0.0 |  0.00
Other   |            | 9.537e-07  |            |       |100.00

Nlocal:    157 ave 157 max 157 min
Histogram: 1 0 0 0 0 0 0 0 0 0
Nghost:    0 ave 0 max 0 min
Histogram: 1 0 0 0 0 0 0 0 0 0
Neighs:    11724 ave 11724 max 11724 min
Histogram: 1 0 0 0 0 0 0 0 0 0

Total # of neighbors = 11724
Ave neighs/atom = 74.6752
Ave special neighs/atom = 6.48408
Neighbor list builds = 0
Dangerous builds = 0
Total wall time: 0:00:00
