protein dna data file produced on: Sun Mar 20 22:39:49 2022

157 atoms
154 bonds
209 angles
176 dihedrals

34 atom types
2 bond types
18 angle types
2 dihedral types

-1000.000000 1000.000000 xlo xhi
-1000.000000 1000.000000 ylo yhi
-1000.000000 1000.000000 zlo zhi

Masses

   1   94.9696
   2   83.1104
   3  134.1220
   4  125.1078
   5  150.1214
   6  110.0964
   7  134.1220
   8  125.1078
   9  150.1214
  10  110.0964
  11  134.1220
  12  125.1078
  13  150.1214
  14  110.0964
  15   71.0788
  16  156.1875
  17  114.1038
  18  115.0886
  19  103.1388
  20  129.1155
  21  128.1307
  22   57.0519
  23  137.1411
  24  113.1594
  25  113.1594
  26  128.1741
  27  131.1926
  28  147.1766
  29   97.1167
  30   87.0782
  31  101.1051
  32  186.2132
  33  163.1760
  34   99.1326

Atoms

      1       1       1      26    1.0000 -1.950000000e+01 -4.950000000e+00 -1.485000000e+01
      2       1       2      26    1.0000 -1.785000000e+01 -4.670000000e+00 -1.143000000e+01
      3       1       3      16    1.0000 -1.717000000e+01 -9.900000000e-01 -1.047000000e+01
      4       1       4      26    1.0000 -1.341000000e+01 -1.470000000e+00 -9.630000000e+00
      5       1       5      16    1.0000 -1.413000000e+01 -1.220000000e+00 -5.930000000e+00
      6       1       6      16    1.0000 -1.079000000e+01 -4.000000000e-01 -4.350000000e+00
      7       1       7      34    0.0000 -9.200000000e+00 -3.510000000e+00 -2.890000000e+00
      8       1       8      25    0.0000 -6.750000000e+00 -3.580000000e+00 -1.000000000e-02
      9       1       9      28    0.0000 -4.750000000e+00 -6.590000000e+00 1.160000000e+00
     10       1      10      31    0.0000 -4.580000000e+00 -7.570000000e+00 4.890000000e+00
     11       1      11      26    1.0000 -1.500000000e+00 -5.950000000e+00 6.430000000e+00
     12       1      12      15    0.0000 -1.800000000e-01 -9.560000000e+00 6.720000000e+00
     13       1      13      21    0.0000 -7.600000000e-01 -1.014000000e+01 2.910000000e+00
     14       1      14      31    0.0000 1.050000000e+00 -6.730000000e+00 2.260000000e+00
     15       1      15      33    0.0000 3.900000000e+00 -7.820000000e+00 4.600000000e+00
     16       1      16      20   -1.0000 4.690000000e+00 -1.087000000e+01 2.450000000e+00
     17       1      17      25    0.0000 4.490000000e+00 -8.580000000e+00 -7.100000000e-01
     18       1      18      20   -1.0000 6.850000000e+00 -6.040000000e+00 9.900000000e-01
     19       1      19      16    1.0000 8.840000000e+00 -9.170000000e+00 1.650000000e+00
     20       1      20      16    1.0000 9.230000000e+00 -1.031000000e+01 -1.970000000e+00
     21       1      21      28    0.0000 9.930000000e+00 -6.730000000e+00 -3.240000000e+00
     22       1      22      16    1.0000 1.234000000e+01 -5.710000000e+00 -4.500000000e-01
     23       1      23      21    0.0000 1.427000000e+01 -8.970000000e+00 -1.310000000e+00
     24       1      24      21    0.0000 1.377000000e+01 -8.930000000e+00 -5.090000000e+00
     25       1      25      16    1.0000 1.273000000e+01 -6.390000000e+00 -7.760000000e+00
     26       1      26      33    0.0000 1.146000000e+01 -8.800000000e+00 -1.054000000e+01
     27       1      27      25    0.0000 9.250000000e+00 -1.190000000e+01 -9.750000000e+00
     28       1      28      30    0.0000 9.060000000e+00 -1.486000000e+01 -1.226000000e+01
     29       1      29      15    0.0000 5.720000000e+00 -1.648000000e+01 -1.313000000e+01
     30       1      30      29    0.0000 6.190000000e+00 -1.949000000e+01 -1.072000000e+01
     31       1      31      20   -1.0000 7.700000000e+00 -1.745000000e+01 -7.780000000e+00
     32       1      32      16    1.0000 5.010000000e+00 -1.479000000e+01 -7.960000000e+00
     33       1      33      20   -1.0000 1.940000000e+00 -1.714000000e+01 -8.270000000e+00
     34       1      34      23    0.0000 3.270000000e+00 -1.881000000e+01 -5.010000000e+00
     35       1      35      25    0.0000 3.070000000e+00 -1.561000000e+01 -2.870000000e+00
     36       1      36      15    0.0000 -3.500000000e-01 -1.525000000e+01 -4.480000000e+00
     37       1      37      30    0.0000 -1.230000000e+00 -1.879000000e+01 -3.320000000e+00
     38       1      38      25    0.0000 2.200000000e-01 -1.854000000e+01 3.000000000e-01
     39       1      39      24    0.0000 -1.790000000e+00 -1.544000000e+01 1.330000000e+00
     40       1      40      16    1.0000 -4.670000000e+00 -1.630000000e+01 -1.060000000e+00
     41       1      41      25    0.0000 -4.590000000e+00 -1.321000000e+01 -3.290000000e+00
     42       1      42      31    0.0000 -4.720000000e+00 -1.406000000e+01 -7.080000000e+00
     43       1      43      29    0.0000 -1.500000000e+00 -1.381000000e+01 -9.240000000e+00
     44       1      44      31    0.0000 -2.400000000e+00 -1.057000000e+01 -1.105000000e+01
     45       1      45      21    0.0000 -3.150000000e+00 -8.990000000e+00 -7.580000000e+00
     46       1      46      34    0.0000 6.200000000e-01 -9.790000000e+00 -6.610000000e+00
     47       1      47      26    1.0000 2.260000000e+00 -8.810000000e+00 -1.008000000e+01
     48       1      48      24    0.0000 4.700000000e-01 -5.360000000e+00 -9.850000000e+00
     49       1      49      32    0.0000 1.640000000e+00 -4.410000000e+00 -6.250000000e+00
     50       1      50      28    0.0000 5.150000000e+00 -5.300000000e+00 -7.740000000e+00
     51       1      51      21    0.0000 4.840000000e+00 -2.840000000e+00 -1.073000000e+01
     52       1      52      17    0.0000 3.780000000e+00 -2.100000000e-01 -8.070000000e+00
     53       1      53      23    0.0000 6.930000000e+00 -3.700000000e-01 -5.790000000e+00
     54       1      54      16    1.0000 9.430000000e+00 -7.000000000e-02 -8.730000000e+00
     55       1      55      33    0.0000 7.930000000e+00 3.280000000e+00 -1.007000000e+01
     56       1      56      26    1.0000 7.480000000e+00 4.610000000e+00 -6.430000000e+00
     57       1      57      31    0.0000 1.099000000e+01 3.730000000e+00 -5.070000000e+00
     58       1      58      26    1.0000 1.296000000e+01 5.200000000e+00 -7.920000000e+00
     59       1      59      16    1.0000 1.066000000e+01 8.180000000e+00 -8.300000000e+00
     60       1      60      15    0.0000 1.122000000e+01 8.890000000e+00 -4.520000000e+00
     61       1      61      21    0.0000 1.491000000e+01 9.660000000e+00 -5.130000000e+00
     62       1      62      17    0.0000 1.429000000e+01 1.166000000e+01 -8.320000000e+00
     63       1      63      20   -1.0000 1.230000000e+01 1.386000000e+01 -5.840000000e+00
     64       2      64       2    0.0000 -1.706749600e+01 2.016919500e+01 2.518709000e+00
     65       2      64       8    0.0000 -1.664080900e+01 1.777346700e+01 6.064865000e+00
     66       2      65       1   -1.0000 -1.704367600e+01 2.002221600e+01 -1.049894000e+00
     67       2      65       2    0.0000 -1.332426900e+01 1.868155500e+01 -8.273710000e-01
     68       2      65       5    0.0000 -1.268315900e+01 1.475522100e+01 2.104634000e+00
     69       2      66       1   -1.0000 -1.087000900e+01 1.979333100e+01 -3.446005000e+00
     70       2      66       2    0.0000 -8.206518000e+00 1.655250900e+01 -2.550525000e+00
     71       2      66       4    0.0000 -1.057897300e+01 1.332332500e+01 -1.411198000e+00
     72       2      67       1   -1.0000 -4.619872000e+00 1.697858600e+01 -3.442363000e+00
     73       2      67       2    0.0000 -3.953270000e+00 1.361037200e+01 -1.787866000e+00
     74       2      67       5    0.0000 -7.947487000e+00 1.132079700e+01 -3.354797000e+00
     75       2      68       1   -1.0000 -8.560640000e-01 1.162751900e+01 -1.094724000e+00
     76       2      68       2    0.0000 -2.935343000e+00 8.173894000e+00 -1.077146000e+00
     77       2      68       4    0.0000 -5.530427000e+00 8.968005000e+00 -4.458775000e+00
     78       2      69       1   -1.0000 -9.469670000e-01 5.170588000e+00 1.913670000e-01
     79       2      69       2    0.0000 -3.421943000e+00 2.864090000e+00 -2.080540000e+00
     80       2      69       6    0.0000 -4.631222000e+00 5.636893000e+00 -5.153056000e+00
     81       2      70       1   -1.0000 -2.004239000e+00 -6.916550000e-01 -2.405639000e+00
     82       2      70       2    0.0000 -4.351330000e+00 -1.243873000e+00 -5.548413000e+00
     83       2      70       3    0.0000 -3.554041000e+00 2.939237000e+00 -7.764482000e+00
     84       2      71       1   -1.0000 -4.870056000e+00 -4.609717000e+00 -7.253123000e+00
     85       2      71       2    0.0000 -6.038763000e+00 -2.010813000e+00 -1.049194200e+01
     86       2      71       3    0.0000 -3.560312000e+00 1.867349000e+00 -1.105444900e+01
     87       2      72       1   -1.0000 -7.938300000e+00 -3.813115000e+00 -1.316340800e+01
     88       2      72       2    0.0000 -7.483000000e+00 -3.948320000e-01 -1.527897400e+01
     89       2      72       5    0.0000 -3.355064000e+00 2.249976000e+00 -1.470637400e+01
     90       2      73       1   -1.0000 -8.901374000e+00 2.018440000e-01 -1.872386200e+01
     91       2      73       2    0.0000 -5.901445000e+00 2.920434000e+00 -1.951119500e+01
     92       2      73       4    0.0000 -2.141721000e+00 1.467003000e+00 -1.787911600e+01
     93       2      74       1   -1.0000 -6.496499000e+00 4.707136000e+00 -2.277342800e+01
     94       2      74       2    0.0000 -2.611587000e+00 5.133208000e+00 -2.297562700e+01
     95       2      74       5    0.0000 -1.572810000e-01 1.583089000e+00 -2.075100700e+01
     96       2      75       1   -1.0000 -1.078743000e+00 6.890052000e+00 -2.592877600e+01
     97       2      75       2    0.0000 2.512262000e+00 5.471057000e+00 -2.591531700e+01
     98       2      75       5    0.0000 2.389874000e+00 1.208471000e+00 -2.354688900e+01
     99       2      76       1   -1.0000 5.171460000e+00 6.013607000e+00 -2.852415200e+01
    100       2      76       2    0.0000 8.058301000e+00 3.359159000e+00 -2.757529700e+01
    101       2      76       6    0.0000 6.077337000e+00 -4.222960000e-01 -2.748126900e+01
    102       2      77       1   -1.0000 1.143493100e+01 3.850890000e+00 -2.930839600e+01
    103       2      77       2    0.0000 1.245961100e+01 -3.422800000e-02 -2.797875600e+01
    104       2      77       4    0.0000 8.890157000e+00 -2.250859000e+00 -2.900303200e+01
    105       2      78       1   -1.0000 1.595940000e+01 -9.173590000e-01 -2.899046300e+01
    106       2      78       2    0.0000 1.525517400e+01 -4.958436000e+00 -2.783472900e+01
    107       2      78       5    0.0000 1.103166500e+01 -6.715739000e+00 -2.968677800e+01
    108       2      79       1   -1.0000 1.743958100e+01 -7.328613000e+00 -2.585997000e+01
    109       2      79       2    0.0000 1.511501900e+01 -1.057004300e+01 -2.755315000e+01
    110       2      79      12    0.0000 1.406376300e+01 -9.494359000e+00 -3.151771000e+01
    111       3      80       2    0.0000 4.243825000e+00 -1.139961000e+01 -3.636132100e+01
    112       3      80       7    0.0000 8.691960000e+00 -9.988414000e+00 -3.520707600e+01
    113       3      81       1   -1.0000 3.085559000e+00 -1.348668500e+01 -3.400242600e+01
    114       3      81       2    0.0000 5.256741000e+00 -1.230620000e+01 -3.065342400e+01
    115       3      81       6    0.0000 6.406718000e+00 -8.164247000e+00 -3.048772300e+01
    116       3      82       1   -1.0000 3.592816000e+00 -1.418601500e+01 -2.780296800e+01
    117       3      82       2    0.0000 4.976170000e+00 -1.127425000e+01 -2.545486700e+01
    118       3      82       3    0.0000 4.929142000e+00 -6.961668000e+00 -2.760779800e+01
    119       3      83       1   -1.0000 4.237697000e+00 -1.145624400e+01 -2.177512300e+01
    120       3      83       2    0.0000 5.234496000e+00 -7.862365000e+00 -2.085969900e+01
    121       3      83       5    0.0000 3.966228000e+00 -4.661458000e+00 -2.433829500e+01
    122       3      84       1   -1.0000 5.541697000e+00 -6.688786000e+00 -1.728867600e+01
    123       3      84       2    0.0000 7.808029000e+00 -3.694438000e+00 -1.733383800e+01
    124       3      84       6    0.0000 4.964095000e+00 -2.711603000e+00 -2.022653700e+01
    125       3      85       1   -1.0000 1.040748800e+01 -1.750655000e+00 -1.692925300e+01
    126       3      85       2    0.0000 8.709653000e+00 1.668524000e+00 -1.740314800e+01
    127       3      85       6    0.0000 4.661990000e+00 4.264390000e-01 -1.772993400e+01
    128       3      86       1   -1.0000 9.818359000e+00 4.914043000e+00 -1.584433900e+01
    129       3      86       2    0.0000 6.541723000e+00 6.630282000e+00 -1.650288000e+01
    130       3      86       3    0.0000 3.240864000e+00 3.234159000e+00 -1.564719000e+01
    131       3      87       1   -1.0000 5.410005000e+00 1.022697700e+01 -1.591560000e+01
    132       3      87       2    0.0000 1.543328000e+00 9.943466000e+00 -1.675016800e+01
    133       3      87       6    0.0000 2.204760000e-01 6.570488000e+00 -1.446488000e+01
    134       3      88       1   -1.0000 -6.368940000e-01 1.304366400e+01 -1.728508600e+01
    135       3      88       2    0.0000 -3.765918000e+00 1.051739900e+01 -1.539919100e+01
    136       3      88       4    0.0000 -2.571820000e+00 7.578250000e+00 -1.260769700e+01
    137       3      89       1   -1.0000 -7.146153000e+00 1.216342000e+01 -1.536905400e+01
    138       3      89       2    0.0000 -8.814102000e+00 8.581196000e+00 -1.445997800e+01
    139       3      89       4    0.0000 -6.242516000e+00 7.504133000e+00 -1.113424600e+01
    140       3      90       1   -1.0000 -1.203913400e+01 6.858817000e+00 -1.539832000e+01
    141       3      90       2    0.0000 -1.204189900e+01 5.022326000e+00 -1.192343200e+01
    142       3      90       5    0.0000 -8.587404000e+00 6.629659000e+00 -8.825737000e+00
    143       3      91       1   -1.0000 -1.501101100e+01 3.348996000e+00 -1.032471500e+01
    144       3      91       2    0.0000 -1.437339900e+01 3.625510000e+00 -6.117144000e+00
    145       3      91       3    0.0000 -1.134859500e+01 7.008620000e+00 -6.632534000e+00
    146       3      92       1   -1.0000 -1.546370700e+01 2.187313000e+00 -2.877754000e+00
    147       3      92       2    0.0000 -1.240026000e+01 3.668828000e+00 -1.018925000e+00
    148       3      92       6    0.0000 -1.187096900e+01 7.400376000e+00 -2.942241000e+00
    149       3      93       1   -1.0000 -1.174563500e+01 2.799160000e+00 2.594192000e+00
    150       3      93       2    0.0000 -8.692659000e+00 4.599756000e+00 3.962397000e+00
    151       3      93       3    0.0000 -1.108645800e+01 7.916909000e+00 1.866985000e+00
    152       3      94       1   -1.0000 -6.425542000e+00 4.885300000e+00 6.891374000e+00
    153       3      94       2    0.0000 -6.337786000e+00 9.031642000e+00 6.255792000e+00
    154       3      94       6    0.0000 -1.005259500e+01 1.046175400e+01 4.566685000e+00
    155       3      95       1   -1.0000 -4.273360000e+00 1.033508400e+01 9.181227000e+00
    156       3      95       2    0.0000 -6.556324000e+00 1.369970400e+01 9.031591000e+00
    157       3      95      11    0.0000 -1.112803600e+01 1.336536100e+01 7.604547000e+00

Bonds

      1       1      64      65
      2       1      64      66
      3       1      66      67
      4       1      67      68
      5       1      67      69
      6       1      69      70
      7       1      70      71
      8       1      70      72
      9       1      72      73
     10       1      73      74
     11       1      73      75
     12       1      75      76
     13       1      76      77
     14       1      76      78
     15       1      78      79
     16       1      79      80
     17       1      79      81
     18       1      81      82
     19       1      82      83
     20       1      82      84
     21       1      84      85
     22       1      85      86
     23       1      85      87
     24       1      87      88
     25       1      88      89
     26       1      88      90
     27       1      90      91
     28       1      91      92
     29       1      91      93
     30       1      93      94
     31       1      94      95
     32       1      94      96
     33       1      96      97
     34       1      97      98
     35       1      97      99
     36       1      99     100
     37       1     100     101
     38       1     100     102
     39       1     102     103
     40       1     103     104
     41       1     103     105
     42       1     105     106
     43       1     106     107
     44       1     106     108
     45       1     108     109
     46       1     109     110
     47       1     111     112
     48       1     111     113
     49       1     113     114
     50       1     114     115
     51       1     114     116
     52       1     116     117
     53       1     117     118
     54       1     117     119
     55       1     119     120
     56       1     120     121
     57       1     120     122
     58       1     122     123
     59       1     123     124
     60       1     123     125
     61       1     125     126
     62       1     126     127
     63       1     126     128
     64       1     128     129
     65       1     129     130
     66       1     129     131
     67       1     131     132
     68       1     132     133
     69       1     132     134
     70       1     134     135
     71       1     135     136
     72       1     135     137
     73       1     137     138
     74       1     138     139
     75       1     138     140
     76       1     140     141
     77       1     141     142
     78       1     141     143
     79       1     143     144
     80       1     144     145
     81       1     144     146
     82       1     146     147
     83       1     147     148
     84       1     147     149
     85       1     149     150
     86       1     150     151
     87       1     150     152
     88       1     152     153
     89       1     153     154
     90       1     153     155
     91       1     155     156
     92       1     156     157
     93       2       1       2
     94       2       2       3
     95       2       3       4
     96       2       4       5
     97       2       5       6
     98       2       6       7
     99       2       7       8
    100       2       8       9
    101       2       9      10
    102       2      10      11
    103       2      11      12
    104       2      12      13
    105       2      13      14
    106       2      14      15
    107       2      15      16
    108       2      16      17
    109       2      17      18
    110       2      18      19
    111       2      19      20
    112       2      20      21
    113       2      21      22
    114       2      22      23
    115       2      23      24
    116       2      24      25
    117       2      25      26
    118       2      26      27
    119       2      27      28
    120       2      28      29
    121       2      29      30
    122       2      30      31
    123       2      31      32
    124       2      32      33
    125       2      33      34
    126       2      34      35
    127       2      35      36
    128       2      36      37
    129       2      37      38
    130       2      38      39
    131       2      39      40
    132       2      40      41
    133       2      41      42
    134       2      42      43
    135       2      43      44
    136       2      44      45
    137       2      45      46
    138       2      46      47
    139       2      47      48
    140       2      48      49
    141       2      49      50
    142       2      50      51
    143       2      51      52
    144       2      52      53
    145       2      53      54
    146       2      54      55
    147       2      55      56
    148       2      56      57
    149       2      57      58
    150       2      58      59
    151       2      59      60
    152       2      60      61
    153       2      61      62
    154       2      62      63

Angles

      1       1      65      64      66
      2       1      64      66      67
      3       1      66      67      68
      4       1      66      67      69
      5       1      68      67      69
      6       1      67      69      70
      7       1      69      70      71
      8       1      69      70      72
      9       1      71      70      72
     10       1      70      72      73
     11       1      72      73      74
     12       1      72      73      75
     13       1      74      73      75
     14       1      73      75      76
     15       1      75      76      77
     16       1      75      76      78
     17       1      77      76      78
     18       1      76      78      79
     19       1      78      79      80
     20       1      78      79      81
     21       1      80      79      81
     22       1      79      81      82
     23       1      81      82      83
     24       1      81      82      84
     25       1      83      82      84
     26       1      82      84      85
     27       1      84      85      86
     28       1      84      85      87
     29       1      86      85      87
     30       1      85      87      88
     31       1      87      88      89
     32       1      87      88      90
     33       1      89      88      90
     34       1      88      90      91
     35       1      90      91      92
     36       1      90      91      93
     37       1      92      91      93
     38       1      91      93      94
     39       1      93      94      95
     40       1      93      94      96
     41       1      95      94      96
     42       1      94      96      97
     43       1      96      97      98
     44       1      96      97      99
     45       1      98      97      99
     46       1      97      99     100
     47       1      99     100     101
     48       1      99     100     102
     49       1     101     100     102
     50       1     100     102     103
     51       1     102     103     104
     52       1     102     103     105
     53       1     104     103     105
     54       1     103     105     106
     55       1     105     106     107
     56       1     105     106     108
     57       1     107     106     108
     58       1     106     108     109
     59       1     108     109     110
     60       1     112     111     113
     61       1     111     113     114
     62       1     113     114     115
     63       1     113     114     116
     64       1     115     114     116
     65       1     114     116     117
     66       1     116     117     118
     67       1     116     117     119
     68       1     118     117     119
     69       1     117     119     120
     70       1     119     120     121
     71       1     119     120     122
     72       1     121     120     122
     73       1     120     122     123
     74       1     122     123     124
     75       1     122     123     125
     76       1     124     123     125
     77       1     123     125     126
     78       1     125     126     127
     79       1     125     126     128
     80       1     127     126     128
     81       1     126     128     129
     82       1     128     129     130
     83       1     128     129     131
     84       1     130     129     131
     85       1     129     131     132
     86       1     131     132     133
     87       1     131     132     134
     88       1     133     132     134
     89       1     132     134     135
     90       1     134     135     136
     91       1     134     135     137
     92       1     136     135     137
     93       1     135     137     138
     94       1     137     138     139
     95       1     137     138     140
     96       1     139     138     140
     97       1     138     140     141
     98       1     140     141     142
     99       1     140     141     143
    100       1     142     141     143
    101       1     141     143     144
    102       1     143     144     145
    103       1     143     144     146
    104       1     145     144     146
    105       1     144     146     147
    106       1     146     147     148
    107       1     146     147     149
    108       1     148     147     149
    109       1     147     149     150
    110       1     149     150     151
    111       1     149     150     152
    112       1     151     150     152
    113       1     150     152     153
    114       1     152     153     154
    115       1     152     153     155
    116       1     154     153     155
    117       1     153     155     156
    118       1     155     156     157
    119       8      64      65      68
    120      11      67      68      71
    121       8      70      71      74
    122      11      73      74      77
    123       9      76      77      80
    124      14      79      80      83
    125       2      82      83      86
    126       4      85      86      89
    127      11      88      89      92
    128       8      91      92      95
    129      12      94      95      98
    130      13      97      98     101
    131      15     100     101     104
    132       8     103     104     107
    133      11     106     107     110
    134       5     111     112     115
    135      14     114     115     118
    136       4     117     118     121
    137      13     120     121     124
    138      17     123     124     127
    139      14     126     127     130
    140       5     129     130     133
    141      15     132     133     136
    142       7     135     136     139
    143       8     138     139     142
    144      10     141     142     145
    145       5     144     145     148
    146      14     147     148     151
    147       5     150     151     154
    148      14     153     154     157
    149      18       1       2       3
    150      18       2       3       4
    151      18       3       4       5
    152      18       4       5       6
    153      18       5       6       7
    154      18       6       7       8
    155      18       7       8       9
    156      18       8       9      10
    157      18       9      10      11
    158      18      10      11      12
    159      18      11      12      13
    160      18      12      13      14
    161      18      13      14      15
    162      18      14      15      16
    163      18      15      16      17
    164      18      16      17      18
    165      18      17      18      19
    166      18      18      19      20
    167      18      19      20      21
    168      18      20      21      22
    169      18      21      22      23
    170      18      22      23      24
    171      18      23      24      25
    172      18      24      25      26
    173      18      25      26      27
    174      18      26      27      28
    175      18      27      28      29
    176      18      28      29      30
    177      18      29      30      31
    178      18      30      31      32
    179      18      31      32      33
    180      18      32      33      34
    181      18      33      34      35
    182      18      34      35      36
    183      18      35      36      37
    184      18      36      37      38
    185      18      37      38      39
    186      18      38      39      40
    187      18      39      40      41
    188      18      40      41      42
    189      18      41      42      43
    190      18      42      43      44
    191      18      43      44      45
    192      18      44      45      46
    193      18      45      46      47
    194      18      46      47      48
    195      18      47      48      49
    196      18      48      49      50
    197      18      49      50      51
    198      18      50      51      52
    199      18      51      52      53
    200      18      52      53      54
    201      18      53      54      55
    202      18      54      55      56
    203      18      55      56      57
    204      18      56      57      58
    205      18      57      58      59
    206      18      58      59      60
    207      18      59      60      61
    208      18      60      61      62
    209      18      61      62      63

Dihedrals

      1       1      65      64      66      67
      2       1      64      66      67      68
      3       1      64      66      67      69
      4       1      66      67      69      70
      5       1      68      67      69      70
      6       1      67      69      70      71
      7       1      67      69      70      72
      8       1      69      70      72      73
      9       1      71      70      72      73
     10       1      70      72      73      74
     11       1      70      72      73      75
     12       1      72      73      75      76
     13       1      74      73      75      76
     14       1      73      75      76      77
     15       1      73      75      76      78
     16       1      75      76      78      79
     17       1      77      76      78      79
     18       1      76      78      79      80
     19       1      76      78      79      81
     20       1      78      79      81      82
     21       1      80      79      81      82
     22       1      79      81      82      83
     23       1      79      81      82      84
     24       1      81      82      84      85
     25       1      83      82      84      85
     26       1      82      84      85      86
     27       1      82      84      85      87
     28       1      84      85      87      88
     29       1      86      85      87      88
     30       1      85      87      88      89