protein dna data file produced on: Thu Jul 28 22:57:19 2022

1948 atoms
1932 bonds
1916 angles
1360 dihedrals

20 atom types
1 bond types
1 angle types
1 dihedral types

-1000.000000 1000.000000 xlo xhi
-1000.000000 1000.000000 ylo yhi
-1000.000000 1000.000000 zlo zhi

Masses

   1   71.0788
   2  156.1875
   3  114.1038
   4  115.0886
   5  103.1388
   6  129.1155
   7  128.1307
   8   57.0519
   9  137.1411
  10  113.1594
  11  113.1594
  12  128.1741
  13  131.1926
  14  147.1766
  15   97.1167
  16   87.0782
  17  101.1051
  18  186.2132
  19  163.1760
  20   99.1326

Atoms

      1       1       1    0.0000 -2.661000e+01 -3.410000e+00 -1.124000e+01
      2       1       2    1.0000 -2.735000e+01  1.300000e-01 -1.241000e+01
      3       1      17    0.0000 -2.549000e+01  2.410000e+00 -1.484000e+01
      4       1      12    1.0000 -2.491000e+01  5.300000e+00 -1.246000e+01
      5       1       7    0.0000 -2.176000e+01  5.520000e+00 -1.033000e+01
      6       1      17    0.0000 -1.976000e+01  6.300000e+00 -1.345000e+01
      7       1       1    0.0000 -2.211000e+01  7.670000e+00 -1.611000e+01
      8       1       2    1.0000 -1.865000e+01  8.890000e+00 -1.701000e+01
      9       1      12    1.0000 -1.963000e+01  9.540000e+00 -2.062000e+01
     10       1      16    0.0000 -1.791000e+01  7.320000e+00 -2.319000e+01
     11       1      17    0.0000 -1.476000e+01  9.230000e+00 -2.409000e+01
     12       1       8    0.0000 -1.329000e+01  1.269000e+01 -2.354000e+01
     13       1       8    0.0000 -1.044000e+01  1.366000e+01 -2.126000e+01
     14       1      12    1.0000 -1.177000e+01  1.720000e+01 -2.101000e+01
     15       1       1    0.0000 -1.222000e+01  1.835000e+01 -1.741000e+01
     16       1      15    0.0000 -1.450000e+01  2.141000e+01 -1.786000e+01
     17       1       2    1.0000 -1.711000e+01  1.888000e+01 -1.901000e+01
     18       1      12    1.0000 -2.052000e+01  1.920000e+01 -2.066000e+01
     19       1       7    0.0000 -2.122000e+01  2.286000e+01 -1.982000e+01
     20       1      11    0.0000 -1.918000e+01  2.595000e+01 -2.068000e+01
     21       1       1    0.0000 -1.551000e+01  2.642000e+01 -1.978000e+01
     22       1      17    0.0000 -1.274000e+01  2.478000e+01 -2.182000e+01
     23       1      12    1.0000 -9.420000e+00  2.492000e+01 -1.997000e+01
     24       1       1    0.0000 -6.360000e+00  2.269000e+01 -2.033000e+01
     25       1       1    0.0000 -7.240000e+00  2.075000e+01 -1.717000e+01
     26       1       2    1.0000 -6.940000e+00  1.697000e+01 -1.702000e+01
     27       1      12    1.0000 -5.620000e+00  1.549000e+01 -1.376000e+01
     28       1      16    0.0000 -2.830000e+00  1.766000e+01 -1.237000e+01
     29       1       1    0.0000 -2.970000e+00  2.130000e+01 -1.128000e+01
     30       1      15    0.0000 -5.310000e+00  2.357000e+01 -1.329000e+01
     31       1       1    0.0000 -4.490000e+00  2.621000e+01 -1.068000e+01
     32       1      17    0.0000 -1.110000e+00  2.784000e+01 -1.004000e+01
     33       1       8    0.0000  1.010000e+00  2.669000e+01 -7.110000e+00
     34       1       8    0.0000  1.630000e+00  2.312000e+01 -5.980000e+00
     35       1      20    0.0000  1.480000e+00  1.960000e+01 -7.400000e+00
     36       1      12    1.0000  1.200000e+00  1.676000e+01 -4.810000e+00
     37       1      12    1.0000  4.560000e+00  1.496000e+01 -4.840000e+00
     38       1      15    0.0000  5.760000e+00  1.505000e+01 -8.480000e+00
     39       1       9    0.0000  7.900000e+00  1.218000e+01 -9.720000e+00
     40       1       2    1.0000  1.160000e+01  1.206000e+01 -8.830000e+00
     41       1      19    0.0000  1.422000e+01  9.390000e+00 -9.440000e+00
     42       1       2    1.0000  1.664000e+01  8.930000e+00 -6.540000e+00
     43       1      15    0.0000  2.015000e+01  1.046000e+01 -6.680000e+00
     44       1       8    0.0000  2.225000e+01  7.950000e+00 -8.590000e+00
     45       1      17    0.0000  1.947000e+01  6.340000e+00 -1.060000e+01
     46       1      20    0.0000  1.984000e+01  8.730000e+00 -1.352000e+01
     47       1       1    0.0000  2.365000e+01  8.770000e+00 -1.325000e+01
     48       1      11    0.0000  2.352000e+01  4.960000e+00 -1.369000e+01
     49       1       2    1.0000  2.114000e+01  5.320000e+00 -1.663000e+01
     50       1       6   -1.0000  2.362000e+01  7.750000e+00 -1.828000e+01
     51       1      10    0.0000  2.658000e+01  5.420000e+00 -1.772000e+01
     52       1       2    1.0000  2.463000e+01  2.670000e+00 -1.951000e+01
     53       1       2    1.0000  2.355000e+01  5.010000e+00 -2.233000e+01
     54       1      19    0.0000  2.706000e+01  6.310000e+00 -2.301000e+01
     55       1       7    0.0000  2.884000e+01  2.990000e+00 -2.268000e+01
     56       1      12    1.0000  2.657000e+01  1.650000e+00 -2.537000e+01
     57       1      16    0.0000  2.721000e+01  4.440000e+00 -2.788000e+01
     58       1      17    0.0000  3.035000e+01  5.630000e+00 -2.966000e+01
     59       1       6   -1.0000  2.951000e+01  9.210000e+00 -3.062000e+01
     60       1      11    0.0000  3.194000e+01  1.195000e+01 -2.963000e+01
     61       1      11    0.0000  3.084000e+01  1.362000e+01 -2.638000e+01
     62       1      10    0.0000  3.248000e+01  1.705000e+01 -2.655000e+01
     63       1       2    1.0000  3.084000e+01  1.957000e+01 -2.895000e+01
     64       1      12    1.0000  3.263000e+01  1.987000e+01 -3.230000e+01
     65       1      11    0.0000  3.299000e+01  2.365000e+01 -3.267000e+01
     66       1      15    0.0000  3.416000e+01  2.436000e+01 -2.913000e+01
     67       1      14    0.0000  3.672000e+01  2.157000e+01 -2.954000e+01
     68       1       7    0.0000  3.790000e+01  2.284000e+01 -3.290000e+01
     69       1       2    1.0000  3.842000e+01  2.629000e+01 -3.134000e+01
     70       1      11    0.0000  4.050000e+01  2.488000e+01 -2.852000e+01
     71       1      20    0.0000  4.271000e+01  2.296000e+01 -3.094000e+01
     72       1       2    1.0000  4.332000e+01  2.599000e+01 -3.320000e+01
     73       1       6   -1.0000  4.412000e+01  2.815000e+01 -3.018000e+01
     74       1      10    0.0000  4.666000e+01  2.567000e+01 -2.882000e+01
     75       1       1    0.0000  4.830000e+01  2.520000e+01 -3.223000e+01
     76       1       7    0.0000  4.858000e+01  2.899000e+01 -3.277000e+01
     77       1       4   -1.0000  5.101000e+01  2.896000e+01 -2.982000e+01
     78       1      14    0.0000  5.342000e+01  2.675000e+01 -3.177000e+01
     79       1      12    1.0000  5.295000e+01  2.809000e+01 -3.530000e+01
     80       1      17    0.0000  5.071000e+01  3.093000e+01 -3.646000e+01
     81       1       4   -1.0000  4.845000e+01  3.089000e+01 -3.948000e+01
     82       1      11    0.0000  4.796000e+01  2.716000e+01 -3.966000e+01
     83       1       2    1.0000  4.509000e+01  2.547000e+01 -4.141000e+01
     84       1      14    0.0000  4.377000e+01  2.201000e+01 -4.038000e+01
     85       1       7    0.0000  4.238000e+01  1.921000e+01 -4.247000e+01
     86       1      16    0.0000  3.891000e+01  1.841000e+01 -4.105000e+01
     87       1      16    0.0000  4.007000e+01  1.484000e+01 -4.032000e+01
     88       1       1    0.0000  4.309000e+01  1.622000e+01 -3.834000e+01
     89       1      20    0.0000  4.072000e+01  1.787000e+01 -3.593000e+01
     90       1      13    0.0000  3.854000e+01  1.475000e+01 -3.579000e+01
     91       1       1    0.0000  4.160000e+01  1.254000e+01 -3.513000e+01
     92       1      11    0.0000  4.255000e+01  1.483000e+01 -3.224000e+01
     93       1       7    0.0000  3.903000e+01  1.468000e+01 -3.083000e+01
     94       1       6   -1.0000  3.880000e+01  1.088000e+01 -3.112000e+01
     95       1       1    0.0000  4.219000e+01  1.058000e+01 -2.938000e+01
     96       1      16    0.0000  4.139000e+01  1.318000e+01 -2.670000e+01
     97       1       6   -1.0000  3.806000e+01  1.166000e+01 -2.581000e+01
     98       1       1    0.0000  3.944000e+01  8.110000e+00 -2.569000e+01
     99       1      19    0.0000  4.223000e+01  9.410000e+00 -2.344000e+01
    100       1      11    0.0000  3.982000e+01  1.116000e+01 -2.107000e+01
    101       1      20    0.0000  3.738000e+01  8.300000e+00 -2.088000e+01
    102       1       1    0.0000  4.017000e+01  5.810000e+00 -2.003000e+01
    103       1      11    0.0000  4.155000e+01  8.280000e+00 -1.747000e+01
    104       1      14    0.0000  3.811000e+01  8.530000e+00 -1.585000e+01
    105       1       6   -1.0000  3.800000e+01  4.730000e+00 -1.558000e+01
    106       1       4   -1.0000  4.135000e+01  4.830000e+00 -1.367000e+01
    107       1      17    0.0000  4.024000e+01  7.850000e+00 -1.162000e+01
    108       1       3    0.0000  3.709000e+01  5.870000e+00 -1.068000e+01
    109       1      11    0.0000  3.917000e+01  2.910000e+00 -9.480000e+00
    110       1       5    0.0000  4.117000e+01  5.370000e+00 -7.290000e+00
    111       1       1    0.0000  3.798000e+01  6.810000e+00 -5.750000e+00
    112       1      10    0.0000  3.663000e+01  3.360000e+00 -5.010000e+00
    113       1       9    0.0000  4.001000e+01  2.390000e+00 -3.560000e+00
    114       1       1    0.0000  3.950000e+01  5.170000e+00 -1.020000e+00
    115       1      12    1.0000  3.600000e+01  3.840000e+00 -2.400000e-01
    116       1       2    1.0000  3.429000e+01  6.680000e+00 -2.110000e+00
    117       1      20    0.0000  3.195000e+01  6.700000e+00 -5.090000e+00
    118       1      17    0.0000  3.264000e+01  1.033000e+01 -5.920000e+00
    119       1      10    0.0000  3.568000e+01  1.109000e+01 -8.070000e+00
    120       1      13    0.0000  3.786000e+01  1.394000e+01 -6.880000e+00
    121       1      15    0.0000  4.091000e+01  1.581000e+01 -8.260000e+00
    122       1      12    1.0000  4.320000e+01  1.375000e+01 -5.990000e+00
    123       1       4   -1.0000  4.192000e+01  1.063000e+01 -7.790000e+00
    124       1      10    0.0000  4.278000e+01  1.206000e+01 -1.120000e+01
    125       1       7    0.0000  4.617000e+01  1.313000e+01 -9.810000e+00
    126       1      11    0.0000  4.692000e+01  9.720000e+00 -8.340000e+00
    127       1       1    0.0000  4.602000e+01  7.990000e+00 -1.160000e+01
    128       1       2    1.0000  4.821000e+01  1.031000e+01 -1.366000e+01
    129       1       2    1.0000  5.114000e+01  9.940000e+00 -1.126000e+01
    130       1      10    0.0000  5.098000e+01  6.120000e+00 -1.142000e+01
    131       1       2    1.0000  5.062000e+01  6.210000e+00 -1.519000e+01
    132       1       8    0.0000  5.383000e+01  8.220000e+00 -1.534000e+01
    133       1       6   -1.0000  5.209000e+01  1.129000e+01 -1.675000e+01
    134       1       2    1.0000  5.275000e+01  1.340000e+01 -1.366000e+01
    135       1       1    0.0000  5.558000e+01  1.122000e+01 -1.244000e+01
    136       2      16    0.0000  1.653000e+01  4.695000e+01 -1.633000e+01
    137       2       8    0.0000  1.807000e+01  4.465000e+01 -1.374000e+01
    138       2       2    1.0000  1.508000e+01  4.237000e+01 -1.318000e+01
    139       2       8    0.0000  1.496000e+01  3.886000e+01 -1.176000e+01
    140       2      12    1.0000  1.769000e+01  3.681000e+01 -1.012000e+01
    141       2       8    0.0000  1.705000e+01  3.362000e+01 -1.204000e+01
    142       2       8    0.0000  1.373000e+01  3.274000e+01 -1.363000e+01
    143       2      12    1.0000  1.136000e+01  3.394000e+01 -1.635000e+01
    144       2       8    0.0000  1.148000e+01  3.760000e+01 -1.734000e+01
    145       2      11    0.0000  1.429000e+01  3.895000e+01 -1.950000e+01
    146       2       8    0.0000  1.788000e+01  4.003000e+01 -1.890000e+01
    147       2      12    1.0000  1.796000e+01  3.784000e+01 -1.580000e+01
    148       2       8    0.0000  2.093000e+01  3.558000e+01 -1.505000e+01
    149       2       8    0.0000  2.226000e+01  3.359000e+01 -1.798000e+01
    150       2       1    0.0000  2.212000e+01  3.614000e+01 -2.079000e+01
    151       2      12    1.0000  2.540000e+01  3.646000e+01 -2.268000e+01
    152       2       2    1.0000  2.566000e+01  3.714000e+01 -2.641000e+01
    153       2       9    0.0000  2.895000e+01  3.675000e+01 -2.828000e+01
    154       2       2    1.0000  3.084000e+01  3.384000e+01 -2.975000e+01
    155       2      12    1.0000  3.452000e+01  3.357000e+01 -2.892000e+01
    156       2      20    0.0000  3.720000e+01  3.566000e+01 -3.057000e+01
    157       2      11    0.0000  3.887000e+01  3.536000e+01 -2.716000e+01
    158       2       2    1.0000  3.651000e+01  3.396000e+01 -2.450000e+01
    159       2       4   -1.0000  3.565000e+01  3.043000e+01 -2.332000e+01
    160       2       3    0.0000  3.769000e+01  2.810000e+01 -2.552000e+01
    161       2      10    0.0000  3.913000e+01  2.573000e+01 -2.288000e+01
    162       2       7    0.0000  3.615000e+01  2.697000e+01 -2.089000e+01
    163       2       8    0.0000  3.413000e+01  2.586000e+01 -2.387000e+01
    164       2      10    0.0000  3.467000e+01  2.222000e+01 -2.291000e+01
    165       2      17    0.0000  3.156000e+01  2.223000e+01 -2.077000e+01
    166       2      12    1.0000  3.070000e+01  2.067000e+01 -1.745000e+01
    167       2      15    0.0000  2.806000e+01  1.858000e+01 -1.929000e+01
    168       2       1    0.0000  3.050000e+01  1.726000e+01 -2.188000e+01
    169       2      10    0.0000  3.296000e+01  1.631000e+01 -1.909000e+01
    170       2       2    1.0000  3.016000e+01  1.459000e+01 -1.717000e+01
    171       2       2    1.0000  2.932000e+01  1.262000e+01 -2.032000e+01
    172       2      11    0.0000  3.296000e+01  1.157000e+01 -2.077000e+01
    173       2       1    0.0000  3.301000e+01  1.047000e+01 -1.713000e+01
    174       2       2    1.0000  2.979000e+01  8.460000e+00 -1.761000e+01
    175       2       2    1.0000  3.128000e+01  6.600000e+00 -2.055000e+01
    176       2       8    0.0000  3.422000e+01  6.030000e+00 -1.816000e+01
    177       2       8    0.0000  3.180000e+01  4.430000e+00 -1.563000e+01
    178       2      20    0.0000  3.174000e+01  7.310000e+00 -1.314000e+01
    179       2      12    1.0000  2.857000e+01  7.710000e+00 -1.102000e+01
    180       2       2    1.0000  2.931000e+01  1.076000e+01 -8.860000e+00
    181       2      10    0.0000  3.150000e+01  1.376000e+01 -9.580000e+00
    182       2      16    0.0000  3.315000e+01  1.636000e+01 -7.350000e+00
    183       2       8    0.0000  3.255000e+01  1.998000e+01 -8.260000e+00
    184       2      11    0.0000  3.629000e+01  2.048000e+01 -8.660000e+00
    185       2      10    0.0000  3.665000e+01  1.775000e+01 -1.131000e+01
    186       2      19    0.0000  3.564000e+01  2.002000e+01 -1.416000e+01
    187       2       6   -1.0000  3.850000e+01  2.245000e+01 -1.389000e+01
    188       2       6   -1.0000  4.088000e+01  1.961000e+01 -1.319000e+01
    189       2      17    0.0000  3.975000e+01  1.785000e+01 -1.636000e+01
    190       2       2    1.0000  4.020000e+01  2.099000e+01 -1.847000e+01
    191       2       8    0.0000  4.376000e+01  2.131000e+01 -1.720000e+01
    192       2      20    0.0000  4.453000e+01  1.770000e+01 -1.806000e+01
    193       2      11    0.0000  4.290000e+01  1.795000e+01 -2.147000e+01
    194       2      12    1.0000  4.487000e+01  2.110000e+01 -2.227000e+01
    195       2      20    0.0000  4.816000e+01  1.932000e+01 -2.141000e+01
    196       2      14    0.0000  4.723000e+01  1.634000e+01 -2.357000e+01
    197       2      11    0.0000  4.643000e+01  1.857000e+01 -2.656000e+01
    198       2       6   -1.0000  4.949000e+01  2.076000e+01 -2.608000e+01
    199       2       3    0.0000  5.161000e+01  1.760000e+01 -2.618000e+01
    200       2      20    0.0000  5.001000e+01  1.602000e+01 -2.917000e+01
    201       2      10    0.0000  4.959000e+01  1.927000e+01 -3.115000e+01
    202       2       2    1.0000  5.317000e+01  2.033000e+01 -3.048000e+01
    203       2       4   -1.0000  5.446000e+01  1.718000e+01 -3.219000e+01
    204       2       1    0.0000  5.191000e+01  1.729000e+01 -3.500000e+01
    205       2      20    0.0000  5.292000e+01  2.087000e+01 -3.580000e+01
    206       2      17    0.0000  5.658000e+01  1.977000e+01 -3.571000e+01
    207       2      19    0.0000  5.577000e+01  1.725000e+01 -3.844000e+01
    208       2      17    0.0000  5.378000e+01  1.994000e+01 -4.034000e+01
    209       2       6   -1.0000  5.671000e+01  2.235000e+01 -4.032000e+01
    210       2       9    0.0000  5.923000e+01  1.968000e+01 -4.126000e+01
    211       2       1    0.0000  5.710000e+01  1.900000e+01 -4.432000e+01
    212       2      12    1.0000  5.715000e+01  2.270000e+01 -4.514000e+01
    213       2       2    1.0000  5.332000e+01  2.268000e+01 -4.497000e+01
    214       2      12    1.0000  5.093000e+01  2.527000e+01 -4.363000e+01
    215       2      17    0.0000  4.816000e+01  2.272000e+01 -4.310000e+01
    216       2      20    0.0000  4.808000e+01  2.021000e+01 -4.019000e+01
    217       2      17    0.0000  4.707000e+01  1.687000e+01 -4.168000e+01
    218       2       1    0.0000  4.542000e+01  1.387000e+01 -4.011000e+01
    219       2      13    0.0000  4.870000e+01  1.198000e+01 -4.071000e+01
    220       2       4   -1.0000  5.066000e+01  1.463000e+01 -3.876000e+01
    221       2      20    0.0000  4.825000e+01  1.393000e+01 -3.588000e+01
    222       2      20    0.0000  4.845000e+01  1.012000e+01 -3.635000e+01
    223       2      19    0.0000  5.227000e+01  1.024000e+01 -3.627000e+01
    224       2       1    0.0000  5.229000e+01  1.253000e+01 -3.324000e+01
    225       2      11    0.0000  4.987000e+01  1.021000e+01 -3.141000e+01
    226       2      12    1.0000  5.191000e+01  7.130000e+00 -3.225000e+01
    227       2       2    1.0000  5.518000e+01  8.530000e+00 -3.092000e+01
    228       2       7    0.0000  5.337000e+01  9.530000e+00 -2.769000e+01
    229       2       8    0.0000  5.229000e+01  5.880000e+00 -2.727000e+01
    230       2       2    1.0000  4.869000e+01  6.550000e+00 -2.827000e+01
    231       2      17    0.0000  4.838000e+01  4.870000e+00 -3.168000e+01
    232       2      11    0.0000  4.505000e+01  5.770000e+00 -3.328000e+01
    233       2      19    0.0000  4.343000e+01  3.640000e+00 -3.599000e+01
    234       2       8    0.0000  4.099000e+01  5.010000e+00 -3.853000e+01
    235       2      14    0.0000  4.276000e+01  8.040000e+00 -3.994000e+01
    236       2       8    0.0000  4.549000e+01  6.780000e+00 -4.225000e+01
    237       2       8    0.0000  4.373000e+01  7.290000e+00 -4.557000e+01
    238       3      16    0.0000  8.990000e+01  1.909000e+01 -6.339000e+01
    239       3       8    0.0000  9.067000e+01  1.594000e+01 -6.535000e+01
    240       3       2    1.0000  9.234000e+01  1.334000e+01 -6.314000e+01
    241       3       8    0.0000  9.597000e+01  1.382000e+01 -6.415000e+01
    242       3      12    1.0000  9.790000e+01  1.452000e+01 -6.096000e+01
    243       3       7    0.0000  9.763000e+01  1.671000e+01 -5.786000e+01
    244       3       8    0.0000  9.997000e+01  1.820000e+01 -5.527000e+01
    245       3       8    0.0000  9.986000e+01  1.998000e+01 -5.193000e+01
    246       3      12    1.0000  9.769000e+01  1.955000e+01 -4.885000e+01
    247       3      17    0.0000  9.572000e+01  2.241000e+01 -4.734000e+01
    248       3       2    1.0000  9.223000e+01  2.095000e+01 -4.708000e+01
    249       3       1    0.0000  9.335000e+01  1.864000e+01 -4.429000e+01
    250       3      12    1.0000  9.474000e+01  1.512000e+01 -4.474000e+01
    251       3       1    0.0000  9.526000e+01  1.521000e+01 -4.099000e+01
    252       3      12    1.0000  9.206000e+01  1.715000e+01 -4.033000e+01
    253       3      17    0.0000  8.916000e+01  1.509000e+01 -3.902000e+01
    254       3       2    1.0000  8.559000e+01  1.608000e+01 -3.974000e+01
    255       3      16    0.0000  8.530000e+01  1.640000e+01 -3.596000e+01
    256       3      16    0.0000  8.804000e+01  1.908000e+01 -3.584000e+01
    257       3       2    1.0000  8.643000e+01  2.067000e+01 -3.888000e+01
    258       3       1    0.0000  8.307000e+01  2.086000e+01 -3.705000e+01
    259       3       8    0.0000  8.469000e+01  2.197000e+01 -3.376000e+01
    260       3      11    0.0000  8.370000e+01  1.875000e+01 -3.199000e+01
    261       3       7    0.0000  8.512000e+01  1.626000e+01 -2.953000e+01
    262       3      14    0.0000  8.273000e+01  1.343000e+01 -3.049000e+01
    263       3      15    0.0000  8.366000e+01  1.147000e+01 -3.368000e+01
    264       3      20    0.0000  8.188000e+01  1.263000e+01 -3.682000e+01
    265       3       8    0.0000  8.336000e+01  9.820000e+00 -3.889000e+01
    266       3       2    1.0000  8.211000e+01  7.110000e+00 -3.652000e+01
    267       3      20    0.0000  7.867000e+01  8.660000e+00 -3.620000e+01
    268       3       9    0.0000  7.844000e+01  8.770000e+00 -4.003000e+01
    269       3       2    1.0000  7.938000e+01  5.090000e+00 -4.027000e+01
    270       3      11    0.0000  7.696000e+01  4.040000e+00 -3.755000e+01
    271       3      11    0.0000  7.412000e+01  5.980000e+00 -3.927000e+01
    272       3       2    1.0000  7.489000e+01  4.100000e+00 -4.250000e+01
    273       3      12    1.0000  7.524000e+01  7.300000e-01 -4.074000e+01
    274       3       8    0.0000  7.188000e+01  1.030000e+00 -3.897000e+01
    275       3       3    0.0000  6.960000e+01  1.080000e+00 -4.201000e+01
    276       3      19    0.0000  6.790000e+01  4.330000e+00 -4.117000e+01
    277       3       1    0.0000  6.768000e+01  5.570000e+00 -4.478000e+01
    278       3       6   -1.0000  6.915000e+01  4.800000e+00 -4.817000e+01
    279       3       2    1.0000  7.129000e+01  7.950000e+00 -4.794000e+01
    280       3      20    0.0000  7.291000e+01  1.000000e+01 -4.515000e+01
    281       3       8    0.0000  7.391000e+01  1.357000e+01 -4.591000e+01
    282       3       1    0.0000  7.730000e+01  1.494000e+01 -4.481000e+01
    283       3       8    0.0000  7.578000e+01  1.729000e+01 -4.225000e+01
    284       3       1    0.0000  7.368000e+01  1.465000e+01 -4.046000e+01
    285       3      15    0.0000  7.651000e+01  1.297000e+01 -3.855000e+01
    286       3      20    0.0000  7.795000e+01  1.637000e+01 -3.769000e+01
    287       3      19    0.0000  7.469000e+01  1.758000e+01 -3.622000e+01
    288       3      11    0.0000  7.411000e+01  1.428000e+01 -3.443000e+01
    289       3       1    0.0000  7.766000e+01  1.412000e+01 -3.296000e+01
    290       3       1    0.0000  7.727000e+01  1.774000e+01 -3.171000e+01
    291       3      20    0.0000  7.396000e+01  1.681000e+01 -2.999000e+01
    292       3      11    0.0000  7.540000e+01  1.366000e+01 -2.836000e+01
    293       3       6   -1.0000  7.841000e+01  1.565000e+01 -2.720000e+01
    294       3      19    0.0000  7.614000e+01  1.834000e+01 -2.578000e+01
    295       3      11    0.0000  7.397000e+01  1.587000e+01 -2.382000e+01
    296       3      17    0.0000  7.707000e+01  1.411000e+01 -2.255000e+01
    297       3       1    0.0000  7.844000e+01  1.743000e+01 -2.127000e+01
    298       3       6   -1.0000  7.514000e+01  1.820000e+01 -1.952000e+01
    299       3      10    0.0000  7.494000e+01  1.491000e+01 -1.767000e+01
    300       3      11    0.0000  7.863000e+01  1.498000e+01 -1.675000e+01
    301       3       6   -1.0000  7.838000e+01  1.856000e+01 -1.548000e+01
    302       3      11    0.0000  7.550000e+01  1.766000e+01 -1.313000e+01
    303       3       1    0.0000  7.704000e+01  1.428000e+01 -1.219000e+01
    304       3       8    0.0000  8.040000e+01  1.579000e+01 -1.127000e+01
    305       3       3    0.0000  7.842000e+01  1.823000e+01 -9.120000e+00
    306       3       1    0.0000  7.671000e+01  1.529000e+01 -7.350000e+00
    307       3       1    0.0000  8.010000e+01  1.362000e+01 -6.770000e+00
    308       3       2    1.0000  8.147000e+01  1.689000e+01 -5.330000e+00
    309       3       4   -1.0000  7.835000e+01  1.730000e+01 -3.120000e+00
    310       3       3    0.0000  7.906000e+01  1.379000e+01 -1.750000e+00
    311       3      12    1.0000  8.275000e+01  1.464000e+01 -1.250000e+00
    312       3      12    1.0000  8.394000e+01  1.230000e+01 -4.000000e+00
    313       3      17    0.0000  8.622000e+01  1.297000e+01 -6.940000e+00
    314       3       2    1.0000  8.524000e+01  9.970000e+00 -9.000000e+00
    315       3      10    0.0000  8.183000e+01  9.800000e+00 -1.068000e+01
    316       3      10    0.0000  8.005000e+01  6.490000e+00 -1.001000e+01
    317       3      15    0.0000  7.655000e+01  5.300000e+00 -1.115000e+01
    318       3       2    1.0000  7.497000e+01  6.790000e+00 -8.060000e+00
    319       3       9    0.0000  7.610000e+01  1.031000e+01 -9.100000e+00
    320       3      11    0.0000  7.471000e+01  9.850000e+00 -1.261000e+01
    321       3       7    0.0000  7.135000e+01  8.770000e+00 -1.110000e+01
    322       3      11    0.0000  7.131000e+01  1.171000e+01 -8.670000e+00
    323       3       1    0.0000  7.215000e+01  1.406000e+01 -1.161000e+01
    324       3      20    0.0000  6.940000e+01  1.268000e+01 -1.378000e+01
    325       3       2    1.0000  6.661000e+01  1.234000e+01 -1.127000e+01
    326       3       3    0.0000  6.715000e+01  1.576000e+01 -9.720000e+00
    327       3       4   -1.0000  6.704000e+01  1.740000e+01 -1.317000e+01
    328       3       6   -1.0000  6.355000e+01  1.784000e+01 -1.461000e+01
    329       3       6   -1.0000  6.452000e+01  1.754000e+01 -1.827000e+01
    330       3      11    0.0000  6.706000e+01  1.469000e+01 -1.803000e+01
    331       3       3    0.0000  6.458000e+01  1.280000e+01 -1.579000e+01
    332       3      12    1.0000  6.198000e+01  1.305000e+01 -1.854000e+01
    333       3      11    0.0000  6.443000e+01  1.211000e+01 -2.131000e+01
    334       3      11    0.0000  6.542000e+01  9.070000e+00 -1.923000e+01
    335       3       8    0.0000  6.196000e+01  8.380000e+00 -1.777000e+01
    336       3       2    1.0000  6.190000e+01  4.730000e+00 -1.881000e+01
    337       3      20    0.0000  6.557000e+01  4.020000e+00 -1.826000e+01
    338       3      17    0.0000  6.716000e+01  2.300000e+00 -1.528000e+01
    339       3      10    0.0000  7.071000e+01  3.270000e+00 -1.433000e+01
    340       3       1    0.0000  7.224000e+01  1.800000e-01 -1.273000e+01
    341       3       7    0.0000  7.358000e+01  7.100000e-01 -9.180000e+00
    342       3       8    0.0000  7.193000e+01  4.080000e+00 -9.160000e+00
    343       3       8    0.0000  6.958000e+01  3.630000e+00 -6.220000e+00
    344       3      20    0.0000  6.677000e+01  6.170000e+00 -5.790000e+00
    345       3      11    0.0000  6.644000e+01  9.760000e+00 -4.550000e+00
    346       3      15    0.0000  6.591000e+01  1.011000e+01 -7.500000e-01
    347       3       3    0.0000  6.220000e+01  1.078000e+01 -4.100000e-01
    348       3      10    0.0000  5.984000e+01  1.000000e+01  2.440000e+00
    349       3       7    0.0000  5.616000e+01  1.089000e+01  2.080000e+00
    350       3      16    0.0000  5.517000e+01  1.358000e+01  4.630000e+00
    351       3      20    0.0000  5.238000e+01  1.164000e+01  6.260000e+00
    352       3      11    0.0000  5.484000e+01  8.950000e+00  7.310000e+00
    353       3      11    0.0000  5.696000e+01  1.120000e+01  9.540000e+00
    354       3      15    0.0000  5.625000e+01  1.115000e+01  1.326000e+01
    355       3      12    1.0000  5.476000e+01  1.405000e+01  1.525000e+01
    356       3      12    1.0000  5.210000e+01  1.556000e+01  1.750000e+01
    357       3      17    0.0000  5.475000e+01  1.436000e+01  1.994000e+01
    358       3       6   -1.0000  5.274000e+01  1.118000e+01  1.941000e+01
    359       3      16    0.0000  5.067000e+01  1.128000e+01  2.260000e+01
    360       3      16    0.0000  4.696000e+01  1.087000e+01  2.186000e+01
    361       3      12    1.0000  4.478000e+01  1.387000e+01  2.274000e+01
    362       3      16    0.0000  4.374000e+01  1.301000e+01  2.630000e+01
    363       3      12    1.0000  4.711000e+01  1.159000e+01  2.736000e+01
    364       3      16    0.0000  4.703000e+01  8.010000e+00  2.607000e+01
    365       3      12    1.0000  4.787000e+01  6.050000e+00  2.291000e+01
    366       4       1    0.0000  1.071800e+02 -1.500000e+00 -4.713000e+01
    367       4      12    1.0000  1.039800e+02 -3.310000e+00 -4.811000e+01
    368       4      16    0.0000  1.010500e+02 -4.800000e+00 -4.619000e+01
    369       4       1    0.0000  9.824000e+01 -5.610000e+00 -4.862000e+01
    370       4      15    0.0000  9.675000e+01 -7.520000e+00 -5.029000e+01
    371       4       1    0.0000  9.582000e+01 -1.074000e+01 -4.849000e+01
    372       4      15    0.0000  9.567000e+01 -1.311000e+01 -4.668000e+01
    373       4      12    1.0000  9.623000e+01 -1.264000e+01 -4.294000e+01
    374       4      12    1.0000  9.335000e+01 -1.014000e+01 -4.260000e+01
    375       4       8    0.0000  9.237000e+01 -1.112000e+01 -3.908000e+01
    376       4      16    0.0000  9.570000e+01 -1.264000e+01 -3.806000e+01
    377       4      12    1.0000  9.726000e+01 -1.329000e+01 -3.465000e+01
    378       4      12    1.0000  9.785000e+01 -1.669000e+01 -3.307000e+01
    379       4       1    0.0000  9.802000e+01 -1.951000e+01 -3.561000e+01
    380       4      20    0.0000  9.890000e+01 -2.281000e+01 -3.394000e+01
    381       4      17    0.0000  1.019900e+02 -2.145000e+01 -3.219000e+01
    382       4      12    1.0000  1.052100e+02 -2.017000e+01 -3.381000e+01
    383       4      17    0.0000  1.062300e+02 -1.709000e+01 -3.180000e+01
    384       4       7    0.0000  1.094200e+02 -1.502000e+01 -3.174000e+01
    385       4      12    1.0000  1.093600e+02 -1.280000e+01 -2.864000e+01
    386       4      12    1.0000  1.066900e+02 -1.126000e+01 -2.640000e+01
    387       4       4   -1.0000  1.036000e+02 -1.335000e+01 -2.569000e+01